[Molden Format]
[Title]
 Molden file created by orca_2mkl for BaseName=MP2-relax

[Atoms] AU
C    1   6          0.0000000000         0.0000000000         0.0000000000
O    2   8          0.0000000000         0.0000000000         2.1342566957
[GTO]
  1 0
s   8 1.0
     6665.0000000000         0.3635842998
     1000.0000000000         0.6749857928
      228.0000000000         1.1316199410
       64.7100000000         1.6530092121
       21.0600000000         1.9238206437
        7.4950000000         1.4472783162
        2.7970000000         0.4391631292
        0.5215000000         0.0066458037
s   8 1.0
     6665.0000000000        -0.1541797483
     1000.0000000000        -0.2937853735
      228.0000000000        -0.4808958038
       64.7100000000        -0.7614343161
       21.0600000000        -0.9001038923
        7.4950000000        -0.9726113518
        2.7970000000        -0.3940419460
        0.5215000000         0.4783944249
s   1 1.0
        0.1596000000         0.1799636353
p   3 1.0
        9.4390000000         1.3437371095
        2.0020000000         1.0631680879
        0.5456000000         0.5082318338
p   1 1.0
        0.1517000000         0.1349497436
d   1 1.0
        0.5500000000         1.0013935509

  2 0
s   8 1.0
    11720.0000000000         0.5697017158
     1759.0000000000         1.0583521000
      400.8000000000         1.7762810558
      113.7000000000         2.5994118899
       37.0300000000         3.0268459958
       13.2700000000         2.2223943344
        5.0250000000         0.6477954310
        1.0130000000         0.0111186960
s   8 1.0
    11720.0000000000        -0.2524342625
     1759.0000000000        -0.4804910908
      400.8000000000        -0.7862996613
      113.7000000000        -1.2541699039
       37.0300000000        -1.4912179216
       13.2700000000        -1.6108317779
        5.0250000000        -0.5497983753
        1.0130000000         0.7882822080
s   1 1.0
        0.3023000000         0.2905619240
p   3 1.0
       17.7000000000         3.2436193456
        3.8540000000         2.5672796523
        1.0460000000         1.1176693232
p   1 1.0
        0.2753000000         0.2842482844
d   1 1.0
        1.1850000000         3.8368709885

[5D]
[7F]
[9G]
[MO]
 Sym=     1a
 Ene= -2.06693598455662E+01
 Spin= Alpha
 Occup= 2.000023
  1       0.995515434205
  2      -0.009388941445
  3      -0.018109585717
  4      -0.000000000000
  5       0.000000000000
  6       0.011577106199
  7      -0.000000000000
  8       0.000000000000
  9       0.004967004177
 10       0.002399663540
 11      -0.000000000000
 12       0.000000000000
 13       0.000000000000
 14       0.000000000000
 15      -0.108202061309
 16       0.002292780144
 17       0.000342617941
 18      -0.000000000000
 19       0.000000000000
 20       0.001293280268
 21      -0.000000000000
 22       0.000000000000
 23       0.002347207973
 24      -0.000123900772
 25       0.000000000000
 26      -0.000000000000
 27       0.000000000000
 28      -0.000000000000
 Sym=     1a
 Ene= -1.13671123447829E+01
 Spin= Alpha
 Occup= 2.000004
  1      -0.108393022163
  2       0.000217028412
  3       0.000754633611
  4      -0.000000000000
  5      -0.000000000000
  6      -0.001679476573
  7      -0.000000000000
  8      -0.000000000000
  9      -0.001458660364
 10       0.000470187225
 11      -0.000000000000
 12      -0.000000000000
 13       0.000000000000
 14       0.000000000000
 15      -0.995346062896
 16       0.004175334538
 17       0.012422761304
 18      -0.000000000000
 19      -0.000000000000
 20       0.006369983318
 21      -0.000000000000
 22      -0.000000000000
 23       0.001669031450
 24      -0.000513310622
 25       0.000000000000
 26       0.000000000000
 27      -0.000000000000
 28      -0.000000000000
 Sym=     1a
 Ene= -1.52210282387839E+00
 Spin= Alpha
 Occup= 1.987803
  1      -0.009945497058
  2       0.207665411693
  3       0.199628576576
  4      -0.000000000000
  5       0.000000000000
  6       0.063884426836
  7      -0.000000000000
  8       0.000000000000
  9      -0.011777293143
 10       0.028643154896
 11      -0.000000000000
 12       0.000000000000
 13       0.000000000000
 14       0.000000000000
 15       0.005478214394
 16       0.444870062117
 17       0.392929042751
 18      -0.000000000000
 19       0.000000000000
 20       0.013048092753
 21      -0.000000000000
 22       0.000000000000
 23       0.074504223801
 24       0.009321095096
 25      -0.000000000000
 26      -0.000000000000
 27      -0.000000000000
 28      -0.000000000000
 Sym=     1a
 Ene= -8.01996231620588E-01
 Spin= Alpha
 Occup= 1.971718
  1      -0.022793769187
  2      -0.400717707594
  3      -0.339948264577
  4      -0.000000000000
  5       0.000000000000
  6      -0.005690261615
  7      -0.000000000000
  8       0.000000000000
  9       0.090271887145
 10      -0.003355489899
 11      -0.000000000000
 12       0.000000000000
 13       0.000000000000
 14      -0.000000000000
 15       0.013538362076
 16       0.185847638964
 17       0.321347626174
 18      -0.000000000000
 19       0.000000000000
 20       0.396788962810
 21      -0.000000000000
 22       0.000000000000
 23       0.197044634935
 24      -0.019076766117
 25       0.000000000000
 26      -0.000000000000
 27       0.000000000000
 28      -0.000000000000
 Sym=     1a
 Ene= -6.33897020990035E-01
 Spin= Alpha
 Occup= 1.966325
  1       0.009211751007
  2       0.111650415079
  3       0.497477838248
  4      -0.000000000000
  5      -0.000000000000
  6      -0.493809686826
  7      -0.000000000000
  8       0.000000000000
  9      -0.125788440999
 10      -0.046717026633
 11      -0.000000000000
 12       0.000000000000
 13       0.000000000000
 14      -0.000000000000
 15       0.002572647098
 16      -0.101737745654
 17      -0.022913515829
 18      -0.000000000000
 19      -0.000000000000
 20       0.430725994392
 21      -0.000000000000
 22      -0.000000000000
 23       0.225463506022
 24      -0.023823932607
 25       0.000000000000
 26       0.000000000000
 27      -0.000000000000
 28      -0.000000000000
 Sym=     1a
 Ene= -6.33897020990034E-01
 Spin= Alpha
 Occup= 1.948485
  1       0.000000000000
  2      -0.000000000000
  3      -0.000000000000
  4       0.322191995082
  5      -0.048773105412
  6      -0.000000000000
  7       0.144947687454
  8      -0.021942036810
  9       0.000000000000
 10       0.000000000000
 11       0.056359623435
 12      -0.008531663791
 13       0.000000000000
 14      -0.000000000000
 15      -0.000000000000
 16       0.000000000000
 17       0.000000000000
 18       0.543513198998
 19      -0.082276489751
 20       0.000000000000
 21       0.322014603336
 22      -0.048746251746
 23       0.000000000000
 24      -0.000000000000
 25      -0.026446501353
 26       0.004003445177
 27       0.000000000000
 28       0.000000000000
 Sym=     1a
 Ene= -5.48958016315842E-01
 Spin= Alpha
 Occup= 1.948485
  1      -0.000000000000
  2       0.000000000000
  3       0.000000000000
  4       0.048773105412
  5       0.322191995082
  6      -0.000000000000
  7       0.021942036810
  8       0.144947687454
  9      -0.000000000000
 10      -0.000000000000
 11       0.008531663791
 12       0.056359623435
 13      -0.000000000000
 14      -0.000000000000
 15      -0.000000000000
 16      -0.000000000000
 17      -0.000000000000
 18       0.082276489751
 19       0.543513198998
 20      -0.000000000000
 21       0.048746251746
 22       0.322014603336
 23      -0.000000000000
 24       0.000000000000
 25      -0.004003445177
 26      -0.026446501353
 27      -0.000000000000
 28      -0.000000000000
 Sym=     1a
 Ene= 1.54142745874098E-01
 Spin= Alpha
 Occup= 0.048468
  1      -0.000000000000
  2      -0.000000000000
  3       0.000000000000
  4      -0.283779314491
  5      -0.558047519895
  6       0.000000000000
  7      -0.114416110880
  8      -0.224997468128
  9       0.000000000000
 10       0.000000000000
 11      -0.012815649650
 12      -0.025201772031
 13      -0.000000000000
 14      -0.000000000000
 15       0.000000000000
 16       0.000000000000
 17      -0.000000000000
 18       0.330983153633
 19       0.650873121491
 20       0.000000000000
 21      -0.027158707171
 22      -0.053407166605
 23       0.000000000000
 24       0.000000000000
 25       0.023051475380
 26       0.045330360643
 27       0.000000000000
 28      -0.000000000000
 Sym=     1a
 Ene= 1.54142745874098E-01
 Spin= Alpha
 Occup= 0.048468
  1      -0.000000000000
  2      -0.000000000000
  3      -0.000000000000
  4       0.558047519895
  5      -0.283779314491
  6      -0.000000000000
  7       0.224997468128
  8      -0.114416110880
  9      -0.000000000000
 10      -0.000000000000
 11       0.025201772031
 12      -0.012815649650
 13       0.000000000000
 14       0.000000000000
 15       0.000000000000
 16       0.000000000000
 17       0.000000000000
 18      -0.650873121491
 19       0.330983153633
 20      -0.000000000000
 21       0.053407166605
 22      -0.027158707171
 23      -0.000000000000
 24       0.000000000000
 25      -0.045330360643
 26       0.023051475380
 27       0.000000000000
 28      -0.000000000000
 Sym=     1a
 Ene= 3.82491972276758E-01
 Spin= Alpha
 Occup= 0.022203
  1      -0.137142083935
  2      -0.508084676524
  3      -0.054025124538
  4      -0.000000000000
  5       0.000000000000
  6      -0.880523293956
  7      -0.000000000000
  8       0.000000000000
  9      -0.053541679000
 10       0.005471973820
 11      -0.000000000000
 12       0.000000000000
 13       0.000000000000
 14       0.000000000000
 15       0.063505051677
 16       0.273455073006
 17       0.395915456559
 18       0.000000000000
 19       0.000000000000
 20      -0.910455443761
 21      -0.000000000000
 22      -0.000000000000
 23       0.147652685572
 24      -0.056400592002
 25      -0.000000000000
 26       0.000000000000
 27      -0.000000000000
 28      -0.000000000000
 Sym=     1a
 Ene= 6.72170213989205E-01
 Spin= Alpha
 Occup= 0.010693
  1      -0.214620452045
  2      -0.516854719041
  3       0.687396263797
  4      -0.000000000000
  5       0.000000000000
  6       0.291318166737
  7       0.000000000000
  8      -0.000000000000
  9      -0.001536333421
 10      -0.050482226605
 11       0.000000000000
 12       0.000000000000
 13      -0.000000000000
 14      -0.000000000000
 15      -0.466278361804
 16      -1.199165114434
 17       0.894382912959
 18      -0.000000000000
 19       0.000000000000
 20      -0.328128977187
 21      -0.000000000000
 22      -0.000000000000
 23       0.504166316916
 24      -0.028961780497
 25       0.000000000000
 26       0.000000000000
 27      -0.000000000000
 28      -0.000000000000
 Sym=     1a
 Ene= 6.72170213989206E-01
 Spin= Alpha
 Occup= 0.006676
  1       0.501873073813
  2       1.273919259870
  3      -1.344845154372
  4       0.000000000000
  5      -0.000000000000
  6      -0.427569773550
  7      -0.000000000000
  8       0.000000000000
  9       0.395511406841
 10       0.061069183857
 11       0.000000000000
 12      -0.000000000000
 13       0.000000000000
 14       0.000000000000
 15      -0.257287594184
 16      -0.629719700901
 17       0.729207430104
 18       0.000000000000
 19      -0.000000000000
 20      -0.098465035222
 21      -0.000000000000
 22       0.000000000000
 23       0.169887237133
 24       0.087879316358
 25      -0.000000000000
 26       0.000000000000
 27       0.000000000000
 28      -0.000000000000
 Sym=     1a
 Ene= 7.26388363652091E-01
 Spin= Alpha
 Occup= 0.005807
  1       0.000000000000
  2       0.000000000000
  3      -0.000000000000
  4       0.374328863426
  5       0.150483772432
  6      -0.000000000000
  7      -0.201594624876
  8      -0.081042961999
  9       0.000000000000
 10      -0.000000000000
 11       0.320725634790
 12       0.128934763476
 13      -0.000000000000
 14      -0.000000000000
 15       0.000000000000
 16       0.000000000000
 17       0.000000000000
 18       0.324044146779
 19       0.130268836611
 20      -0.000000000000
 21      -0.654410929179
 22      -0.263079433113
 23       0.000000000000
 24      -0.000000000000
 25      -0.518716297240
 26      -0.208528897523
 27      -0.000000000000
 28      -0.000000000000
 Sym=     1a
 Ene= 1.01685116445859E+00
 Spin= Alpha
 Occup= 0.005807
  1       0.000000000000
  2       0.000000000000
  3      -0.000000000000
  4      -0.150483772432
  5       0.374328863426
  6      -0.000000000000
  7       0.081042961999
  8      -0.201594624876
  9       0.000000000000
 10       0.000000000000
 11      -0.128934763476
 12       0.320725634790
 13       0.000000000000
 14       0.000000000000
 15      -0.000000000000
 16      -0.000000000000
 17       0.000000000000
 18      -0.130268836611
 19       0.324044146779
 20       0.000000000000
 21       0.263079433113
 22      -0.654410929179
 23      -0.000000000000
 24      -0.000000000000
 25       0.208528897523
 26      -0.518716297240
 27       0.000000000000
 28       0.000000000000
 Sym=     1a
 Ene= 1.06145276150441E+00
 Spin= Alpha
 Occup= 0.005719
  1       0.161428115806
  2       0.306662971219
  3       0.385884599830
  4      -0.000000000000
  5       0.000000000000
  6       0.410257834875
  7       0.000000000000
  8      -0.000000000000
  9      -0.284399900798
 10       0.254803252538
 11      -0.000000000000
 12       0.000000000000
 13      -0.000000000000
 14      -0.000000000000
 15       0.125947010181
 16       0.267292730508
 17      -0.708346791504
 18      -0.000000000000
 19       0.000000000000
 20      -0.204583940154
 21       0.000000000000
 22      -0.000000000000
 23       0.917744249562
 24       0.564876752410
 25      -0.000000000000
 26       0.000000000000
 27      -0.000000000000
 28       0.000000000000
 Sym=     1a
 Ene= 1.22461869091018E+00
 Spin= Alpha
 Occup= 0.004186
  1       0.000000000000
  2       0.000000000000
  3      -0.000000000000
  4      -0.000000000000
  5       0.000000000000
  6      -0.000000000000
  7       0.000000000000
  8       0.000000000000
  9       0.000000000000
 10       0.000000000000
 11      -0.000000000000
 12       0.000000000000
 13      -0.503263647299
 14      -0.060295150663
 15      -0.000000000000
 16      -0.000000000000
 17       0.000000000000
 18      -0.000000000000
 19       0.000000000000
 20       0.000000000000
 21       0.000000000000
 22      -0.000000000000
 23      -0.000000000000
 24      -0.000000000000
 25       0.000000000000
 26      -0.000000000000
 27      -0.788127686165
 28      -0.094424220375
 Sym=     1a
 Ene= 1.22461869091018E+00
 Spin= Alpha
 Occup= 0.004186
  1      -0.000000000000
  2      -0.000000000000
  3      -0.000000000000
  4      -0.000000000000
  5       0.000000000000
  6       0.000000000000
  7       0.000000000000
  8      -0.000000000000
  9      -0.000000000000
 10       0.000000000000
 11       0.000000000000
 12      -0.000000000000
 13       0.060295150662
 14      -0.503263647299
 15      -0.000000000000
 16      -0.000000000000
 17       0.000000000000
 18      -0.000000000000
 19       0.000000000000
 20       0.000000000000
 21       0.000000000000
 22      -0.000000000000
 23      -0.000000000000
 24      -0.000000000000
 25      -0.000000000000
 26       0.000000000000
 27       0.094424220375
 28      -0.788127686165
 Sym=     1a
 Ene= 1.34421509905793E+00
 Spin= Alpha
 Occup= 0.003455
  1      -0.000000000000
  2      -0.000000000000
  3       0.000000000000
  4       0.423849579544
  5       0.018933035595
  6       0.000000000000
  7      -0.052725971571
  8      -0.002355229549
  9       0.000000000000
 10       0.000000000000
 11      -0.728488037481
 12      -0.032541001403
 13      -0.000000000000
 14      -0.000000000000
 15      -0.000000000000
 16      -0.000000000000
 17      -0.000000000000
 18       0.571899990257
 19       0.025546333245
 20       0.000000000000
 21      -0.478203841644
 22      -0.021360997983
 23      -0.000000000000
 24      -0.000000000000
 25       0.123566475952
 26       0.005519620010
 27       0.000000000000
 28      -0.000000000000
 Sym=     1a
 Ene= 1.34421509905793E+00
 Spin= Alpha
 Occup= 0.003455
  1      -0.000000000000
  2       0.000000000000
  3       0.000000000000
  4       0.018933035595
  5      -0.423849579544
  6       0.000000000000
  7      -0.002355229549
  8       0.052725971571
  9       0.000000000000
 10       0.000000000000
 11      -0.032541001403
 12       0.728488037481
 13       0.000000000000
 14      -0.000000000000
 15      -0.000000000000
 16      -0.000000000000
 17      -0.000000000000
 18       0.025546333245
 19      -0.571899990257
 20       0.000000000000
 21      -0.021360997983
 22       0.478203841644
 23      -0.000000000000
 24      -0.000000000000
 25       0.005519620010
 26      -0.123566475952
 27       0.000000000000
 28      -0.000000000000
 Sym=     1a
 Ene= 1.55740114823369E+00
 Spin= Alpha
 Occup= 0.001492
  1       0.035438664716
  2       0.171551468893
  3       0.099047462967
  4      -0.000000000000
  5       0.000000000000
  6       0.491945642934
  7       0.000000000000
  8      -0.000000000000
  9      -0.021733199629
 10       1.260707325377
 11       0.000000000000
 12       0.000000000000
 13      -0.000000000000
 14       0.000000000000
 15      -0.426210681262
 16      -0.893973345899
 17       0.092155900491
 18       0.000000000000
 19      -0.000000000000
 20       0.661332432904
 21      -0.000000000000
 22       0.000000000000
 23      -0.221631791174
 24      -0.394617068387
 25      -0.000000000000
 26       0.000000000000
 27       0.000000000000
 28       0.000000000000
 Sym=     1a
 Ene= 1.55740114823369E+00
 Spin= Alpha
 Occup= 0.001307
  1      -0.000000000000
  2      -0.000000000000
  3      -0.000000000000
  4       0.000000000000
  5      -0.000000000000
  6       0.000000000000
  7      -0.000000000000
  8       0.000000000000
  9      -0.000000000000
 10       0.000000000000
 11       0.000000000000
 12      -0.000000000000
 13       0.870713134346
 14      -0.071255394550
 15      -0.000000000000
 16      -0.000000000000
 17       0.000000000000
 18      -0.000000000000
 19       0.000000000000
 20       0.000000000000
 21      -0.000000000000
 22       0.000000000000
 23      -0.000000000000
 24      -0.000000000000
 25       0.000000000000
 26      -0.000000000000
 27      -0.622472796111
 28       0.050940479675
 Sym=     1a
 Ene= 1.93895577524525E+00
 Spin= Alpha
 Occup= 0.001307
  1       0.000000000000
  2       0.000000000000
  3       0.000000000000
  4       0.000000000000
  5      -0.000000000002
  6      -0.000000000000
  7      -0.000000000000
  8       0.000000000001
  9       0.000000000000
 10       0.000000000000
 11       0.000000000000
 12      -0.000000000002
 13      -0.071255394550
 14      -0.870713134346
 15       0.000000000000
 16       0.000000000000
 17      -0.000000000000
 18      -0.000000000000
 19       0.000000000000
 20       0.000000000000
 21      -0.000000000000
 22       0.000000000000
 23       0.000000000000
 24      -0.000000000000
 25       0.000000000000
 26      -0.000000000002
 27       0.050940479675
 28       0.622472796111
 Sym=     1a
 Ene= 2.34061292694942E+00
 Spin= Alpha
 Occup= 0.001226
  1      -0.000000000000
  2      -0.000000000000
  3      -0.000000000000
  4      -0.481829307756
  5      -0.574171518836
  6       0.000000000000
  7       0.405894707042
  8       0.483684111169
  9      -0.000000000000
 10       0.000000000000
 11      -0.402263152307
 12      -0.479356571015
 13       0.000000000000
 14       0.000000000001
 15      -0.000000000000
 16      -0.000000000000
 17       0.000000000000
 18       0.068912306622
 19       0.082119295760
 20       0.000000000000
 21       0.074013105921
 22       0.088197660740
 23      -0.000000000000
 24      -0.000000000000
 25      -0.530026035182
 26      -0.631605111176
 27      -0.000000000000
 28      -0.000000000001
 Sym=     1a
 Ene= 2.93693538773815E+00
 Spin= Alpha
 Occup= 0.001226
  1       0.000000000000
  2       0.000000000000
  3       0.000000000000
  4      -0.574171518836
  5       0.481829307756
  6      -0.000000000000
  7       0.483684111169
  8      -0.405894707042
  9       0.000000000000
 10      -0.000000000000
 11      -0.479356571015
 12       0.402263152307
 13       0.000000000000
 14      -0.000000000002
 15       0.000000000000
 16       0.000000000000
 17      -0.000000000000
 18       0.082119295760
 19      -0.068912306622
 20      -0.000000000000
 21       0.088197660740
 22      -0.074013105921
 23       0.000000000000
 24       0.000000000000
 25      -0.631605111176
 26       0.530026035182
 27      -0.000000000000
 28       0.000000000001
 Sym=     1a
 Ene= 2.93693538773815E+00
 Spin= Alpha
 Occup= 0.000752
  1      -0.693447716043
  2      -1.404890908694
  3      -0.168821466858
  4       0.000000000000
  5       0.000000000000
  6      -1.060626506534
  7       0.000000000000
  8      -0.000000000000
  9       0.237415485162
 10       0.052520049789
 11       0.000000000000
 12      -0.000000000000
 13      -0.000000000000
 14       0.000000000000
 15      -0.288073755904
 16      -0.533013698964
 17       1.394249255946
 18       0.000000000000
 19      -0.000000000000
 20       0.110979522050
 21      -0.000000000000
 22       0.000000000000
 23      -1.454774605104
 24       0.990707266620
 25       0.000000000000
 26      -0.000000000000
 27       0.000000000000
 28      -0.000000000000
 Sym=     1a
 Ene= 3.42516148602067E+00
 Spin= Alpha
 Occup= 0.000330
  1      -0.000000000000
  2      -0.000000000000
  3       0.000000000000
  4       0.130521032625
  5      -0.190299573444
  6       0.000000000000
  7      -0.705887573604
  8       1.029183584144
  9       0.000000000000
 10       0.000000000000
 11      -0.428847422811
 12       0.625259239597
 13      -0.000000000000
 14      -0.000000000000
 15       0.000000000000
 16       0.000000000000
 17      -0.000000000000
 18      -0.172386695037
 19       0.251339680382
 20       0.000000000000
 21       0.738188670943
 22      -1.076278562405
 23       0.000000000000
 24       0.000000000000
 25      -0.300294099146
 26       0.437828584616
 27       0.000000000000
 28       0.000000000000
 Sym=     1a
 Ene= 3.42516148602067E+00
 Spin= Alpha
 Occup= 0.000330
  1       0.000000000000
  2       0.000000000000
  3       0.000000000000
  4      -0.190299573444
  5      -0.130521032625
  6      -0.000000000000
  7       1.029183584144
  8       0.705887573604
  9       0.000000000000
 10      -0.000000000000
 11       0.625259239597
 12       0.428847422811
 13      -0.000000000000
 14       0.000000000000
 15       0.000000000000
 16       0.000000000000
 17      -0.000000000000
 18       0.251339680382
 19       0.172386695037
 20      -0.000000000000
 21      -1.076278562405
 22      -0.738188670943
 23       0.000000000000
 24       0.000000000000
 25       0.437828584616
 26       0.300294099146
 27       0.000000000000
 28      -0.000000000000
 Sym=     1a
 Ene= 3.87015679163642E+00
 Spin= Alpha
 Occup= 0.000063
  1       0.184809993558
  2       0.368630916639
  3       2.845397209784
  4       0.000000000000
  5      -0.000000000000
  6       0.579866666315
  7       0.000000000000
  8      -0.000000000000
  9       2.323927233420
 10       0.768052979436
 11       0.000000000000
 12      -0.000000000000
 13       0.000000000000
 14       0.000000000000
 15       0.572140488312
 16       1.097800977403
 17      -4.638279721284
 18       0.000000000000
 19      -0.000000000000
 20       0.184437796006
 21      -0.000000000000
 22       0.000000000000
 23       1.487228694987
 24      -0.270878607418
 25       0.000000000000
 26      -0.000000000000
 27       0.000000000000
 28      -0.000000000000
