[Molden Format]
[Title]
Generated by Multiwfn  Date: 2023-10-20 Time: 17:51:54
[Atoms] AU
C       1   6     0.0000000     0.0000000     0.0000000
O       2   8     0.0000000     0.0000000     2.1342567
[GTO]
     1     0
s   9 1.0
  6.66500000E+03  6.92000179E-04
  1.00000000E+03  5.32900138E-03
  2.28000000E+02  2.70770070E-02
  6.47100000E+01  1.01718026E-01
  2.10600000E+01  2.74740071E-01
  7.49500000E+00  4.48564116E-01
  2.79700000E+00  2.85074074E-01
  5.21500000E-01  1.52040039E-02
  1.59600000E-01 -3.19100083E-03
s   9 1.0
  6.66500000E+03 -1.46000064E-04
  1.00000000E+03 -1.15400051E-03
  2.28000000E+02 -5.72500252E-03
  6.47100000E+01 -2.33120103E-02
  2.10600000E+01 -6.39550281E-02
  7.49500000E+00 -1.49981066E-01
  2.79700000E+00 -1.27262056E-01
  5.21500000E-01  5.44529240E-01
  1.59600000E-01  5.80496255E-01
s   1 1.0
  1.59600000E-01  1.00000000E+00
p   4 1.0
  9.43900000E+00  3.81090213E-02
  2.00200000E+00  2.09480117E-01
  5.45600000E-01  5.08557284E-01
  1.51700000E-01  4.68842262E-01
p   1 1.0
  1.51700000E-01  1.00000000E+00
d   1 1.0
  5.50000000E-01  1.00000000E+00

     2     0
s   9 1.0
  1.17200000E+04  7.10000250E-04
  1.75900000E+03  5.47000193E-03
  4.00800000E+02  2.78370098E-02
  1.13700000E+02  1.04800037E-01
  3.70300000E+01  2.83062100E-01
  1.32700000E+01  4.48719158E-01
  5.02500000E+00  2.70952096E-01
  1.01300000E+00  1.54580054E-02
  3.02300000E-01 -2.58500091E-03
s   9 1.0
  1.17200000E+04 -1.60000015E-04
  1.75900000E+03 -1.26300012E-03
  4.00800000E+02 -6.26700060E-03
  1.13700000E+02 -2.57160025E-02
  3.70300000E+01 -7.09240068E-02
  1.32700000E+01 -1.65411016E-01
  5.02500000E+00 -1.16955011E-01
  1.01300000E+00  5.57368054E-01
  3.02300000E-01  5.72759055E-01
s   1 1.0
  3.02300000E-01  1.00000000E+00
p   4 1.0
  1.77000000E+01  4.30179924E-02
  3.85400000E+00  2.28912960E-01
  1.04600000E+00  5.08727910E-01
  2.75300000E-01  4.60530919E-01
p   1 1.0
  2.75300000E-01  1.00000000E+00
d   1 1.0
  1.18500000E+00  1.00000000E+00


[5D10F]
[MO]
Ene=      0.00000000
Spin= Alpha
Occup=  2.000000
     1     -1.0007032500
     2     -0.0042125004
     3     -0.0001318415
     4      0.0000000000
     5      0.0000000000
     6     -0.0057316677
     7      0.0000000000
     8      0.0000000000
     9      0.0017369150
    10     -0.0019119178
    11      0.0000000000
    12      0.0000000000
    13      0.0000000000
    14      0.0000000000
    15      0.0003751444
    16     -0.0013017537
    17      0.0047163964
    18      0.0000000000
    19      0.0000000000
    20      0.0004623219
    21      0.0000000000
    22      0.0000000000
    23     -0.0027367273
    24     -0.0000556445
    25      0.0000000000
    26      0.0000000000
    27      0.0000000000
    28      0.0000000000
Ene=      0.00000000
Spin= Alpha
Occup=  2.000000
     1     -0.0000889295
     2      0.0000647192
     3     -0.0019046022
     4      0.0000000000
     5      0.0000000000
     6      0.0004162836
     7      0.0000000000
     8      0.0000000000
     9     -0.0013682005
    10      0.0005737746
    11      0.0000000000
    12      0.0000000000
    13      0.0000000000
    14      0.0000000000
    15     -1.0006712800
    16     -0.0032112742
    17      0.0041741703
    18      0.0000000000
    19      0.0000000000
    20      0.0025708312
    21      0.0000000000
    22      0.0000000000
    23     -0.0024531253
    24     -0.0003986631
    25      0.0000000000
    26      0.0000000000
    27      0.0000000000
    28      0.0000000000
Ene=      0.00000000
Spin= Alpha
Occup=  1.984219
     1     -0.0181642022
     2      0.3294438740
     3     -0.0783003695
     4     -0.0000000000
     5     -0.0000000000
     6      0.1806255910
     7     -0.0000000000
     8      0.0000000000
     9     -0.0756881191
    10      0.0332865637
    11     -0.0000000000
    12     -0.0000000000
    13     -0.0000000000
    14      0.0000000000
    15     -0.0056830544
    16      0.9148066180
    17     -0.1065942000
    18      0.0000000000
    19     -0.0000000000
    20     -0.0082199720
    21      0.0000000000
    22      0.0000000000
    23      0.0658648415
    24      0.0105991634
    25     -0.0000000000
    26     -0.0000000000
    27      0.0000000000
    28     -0.0000000000
Ene=      0.00000000
Spin= Alpha
Occup=  1.968536
     1      0.0058885898
     2      0.5045265130
     3     -0.3171414640
     4     -0.0000000000
     5     -0.0000000000
     6      0.4475387310
     7      0.0000000000
     8      0.0000000000
     9     -0.2052642730
    10      0.0323399348
    11     -0.0000000000
    12     -0.0000000000
    13      0.0000000000
    14     -0.0000000000
    15     -0.0044998402
    16     -0.1841175190
    17     -0.1427661650
    18     -0.0000000000
    19     -0.0000000000
    20     -0.8372322730
    21      0.0000000000
    22      0.0000000000
    23      0.0914290128
    24      0.0302690982
    25     -0.0000000000
    26     -0.0000000000
    27     -0.0000000000
    28      0.0000000000
Ene=      0.00000000
Spin= Alpha
Occup=  1.940453
     1      0.0044617583
     2     -0.7254499180
     3     -0.1935195660
     4      0.0000000000
     5      0.0000000000
     6      0.5743226750
     7     -0.0000000000
     8     -0.0000000000
     9     -0.1130633650
    10      0.0323610662
    11     -0.0000000000
    12      0.0000000000
    13     -0.0000000000
    14     -0.0000000000
    15      0.0026444548
    16      0.2480680340
    17      0.0103281316
    18      0.0000000000
    19      0.0000000000
    20     -0.1536768770
    21      0.0000000000
    22     -0.0000000000
    23     -0.0017678116
    24      0.0065372122
    25     -0.0000000000
    26      0.0000000000
    27     -0.0000000000
    28      0.0000000000
Ene=      0.00000000
Spin= Alpha
Occup=  1.935976
     1     -0.0000000000
     2     -0.0000000000
     3     -0.0000000000
     4      0.1335153680
     5      0.4571398830
     6     -0.0000000000
     7     -0.0231408496
     8     -0.0792313696
     9      0.0000000000
    10     -0.0000000000
    11      0.0164070287
    12      0.0561756155
    13      0.0000000000
    14      0.0000000000
    15      0.0000000000
    16      0.0000000000
    17      0.0000000000
    18      0.2250886020
    19      0.7706752070
    20      0.0000000000
    21     -0.0102954007
    22     -0.0352501575
    23     -0.0000000000
    24      0.0000000000
    25     -0.0077823431
    26     -0.0266457684
    27      0.0000000000
    28     -0.0000000000
Ene=      0.00000000
Spin= Alpha
Occup=  1.935976
     1      0.0000000000
     2      0.0000000000
     3     -0.0000000000
     4      0.4571398830
     5     -0.1335153680
     6      0.0000000000
     7     -0.0792313696
     8      0.0231408496
     9     -0.0000000000
    10      0.0000000000
    11      0.0561756155
    12     -0.0164070287
    13      0.0000000000
    14      0.0000000000
    15     -0.0000000000
    16     -0.0000000000
    17      0.0000000000
    18      0.7706752070
    19     -0.2250886020
    20     -0.0000000000
    21     -0.0352501575
    22      0.0102954007
    23      0.0000000000
    24     -0.0000000000
    25     -0.0266457684
    26      0.0077823431
    27      0.0000000000
    28      0.0000000000
Ene=      0.00000000
Spin= Alpha
Occup=  0.067119
     1     -0.0000000000
     2      0.0000000000
     3      0.0000000000
     4      0.2774057650
     5     -0.9969733040
     6      0.0000000000
     7     -0.0553865958
     8      0.1990548060
     9     -0.0000000000
    10      0.0000000000
    11     -0.0073158166
    12      0.0262924899
    13      0.0000000000
    14      0.0000000000
    15      0.0000000000
    16      0.0000000000
    17     -0.0000000000
    18     -0.2386221070
    19      0.8575879390
    20      0.0000000000
    21      0.0873781905
    22     -0.3140298690
    23     -0.0000000000
    24      0.0000000000
    25     -0.0097294646
    26      0.0349668754
    27     -0.0000000000
    28      0.0000000000
Ene=      0.00000000
Spin= Alpha
Occup=  0.067119
     1     -0.0000000000
     2     -0.0000000000
     3      0.0000000000
     4      0.9969733040
     5      0.2774057650
     6     -0.0000000000
     7     -0.1990548060
     8     -0.0553865958
     9      0.0000000000
    10     -0.0000000000
    11     -0.0262924899
    12     -0.0073158166
    13      0.0000000000
    14     -0.0000000000
    15      0.0000000000
    16      0.0000000000
    17     -0.0000000000
    18     -0.8575879390
    19     -0.2386221070
    20      0.0000000000
    21      0.3140298690
    22      0.0873781905
    23     -0.0000000000
    24     -0.0000000000
    25     -0.0349668754
    26     -0.0097294646
    27      0.0000000000
    28     -0.0000000000
Ene=      0.00000000
Spin= Alpha
Occup=  0.023463
     1     -0.0878975139
     2     -0.7701138580
     3      0.2253037620
     4      0.0000000000
     5     -0.0000000000
     6     -1.3213990400
     7      0.0000000000
     8     -0.0000000000
     9      0.5175354090
    10      0.0772069734
    11      0.0000000000
    12     -0.0000000000
    13      0.0000000000
    14      0.0000000000
    15      0.1205903030
    16      0.8545881040
    17     -0.2042180690
    18     -0.0000000000
    19      0.0000000000
    20     -1.1670403400
    21     -0.0000000000
    22      0.0000000000
    23      0.5740379910
    24     -0.0630783046
    25      0.0000000000
    26     -0.0000000000
    27     -0.0000000000
    28     -0.0000000000
Ene=      0.00000000
Spin= Alpha
Occup=  0.012318
     1     -0.3216439840
     2     -1.6730606000
     3      2.0248808500
     4      0.0000000000
     5      0.0000000000
     6      0.3479513220
     7      0.0000000000
     8      0.0000000000
     9     -0.1994410670
    10     -0.0730059182
    11      0.0000000000
    12      0.0000000000
    13     -0.0000000000
    14      0.0000000000
    15     -0.3317887510
    16     -1.7005228300
    17      1.5349187300
    18     -0.0000000000
    19     -0.0000000000
    20     -0.7221978980
    21     -0.0000000000
    22     -0.0000000000
    23      0.9258179010
    24     -0.0200500726
    25      0.0000000000
    26      0.0000000000
    27     -0.0000000000
    28     -0.0000000000
Ene=      0.00000000
Spin= Alpha
Occup=  0.008637
     1      0.4188278540
     2      2.1450394400
     3     -2.3955904000
     4     -0.0000000000
     5      0.0000000000
     6     -0.6568100260
     7      0.0000000000
     8      0.0000000000
     9      0.7577106770
    10      0.0015911626
    11      0.0000000000
    12     -0.0000000000
    13      0.0000000000
    14     -0.0000000000
    15     -0.3370244190
    16     -1.6450060200
    17      1.8475306000
    18     -0.0000000000
    19     -0.0000000000
    20     -0.2992314720
    21      0.0000000000
    22      0.0000000000
    23      0.3589809150
    24      0.0367389209
    25      0.0000000000
    26      0.0000000000
    27      0.0000000000
    28     -0.0000000000
Ene=      0.00000000
Spin= Alpha
Occup=  0.007488
     1     -0.0000000000
     2     -0.0000000000
     3     -0.0000000000
     4      0.3875064210
     5     -0.5688263330
     6     -0.0000000000
     7     -0.2274109430
     8      0.3338198850
     9      0.0000000000
    10     -0.0000000000
    11     -0.2297083260
    12      0.3371921000
    13      0.0000000000
    14     -0.0000000000
    15     -0.0000000000
    16     -0.0000000000
    17      0.0000000000
    18      0.6501275260
    19     -0.9543314840
    20     -0.0000000000
    21     -0.7844031620
    22      1.1514366400
    23     -0.0000000000
    24     -0.0000000000
    25     -0.0322973373
    26      0.0474097532
    27      0.0000000000
    28     -0.0000000000
Ene=      0.00000000
Spin= Alpha
Occup=  0.007488
     1      0.0000000000
     2      0.0000000000
     3      0.0000000000
     4     -0.5688263330
     5     -0.3875064210
     6      0.0000000000
     7      0.3338198850
     8      0.2274109430
     9     -0.0000000000
    10      0.0000000000
    11      0.3371921000
    12      0.2297083260
    13     -0.0000000000
    14     -0.0000000000
    15      0.0000000000
    16      0.0000000000
    17     -0.0000000000
    18     -0.9543314840
    19     -0.6501275260
    20     -0.0000000000
    21      1.1514366400
    22      0.7844031620
    23      0.0000000000
    24      0.0000000000
    25      0.0474097532
    26      0.0322973373
    27     -0.0000000000
    28     -0.0000000000
Ene=      0.00000000
Spin= Alpha
Occup=  0.006519
     1      0.2162325170
     2      0.9281850610
     3     -0.3560692040
     4     -0.0000000000
     5     -0.0000000000
     6      0.6026819680
     7      0.0000000000
     8      0.0000000000
     9     -0.5614939360
    10      0.3533826230
    11     -0.0000000000
    12     -0.0000000000
    13     -0.0000000000
    14      0.0000000000
    15      0.0611340850
    16      0.2485769740
    17     -0.7057324720
    18     -0.0000000000
    19      0.0000000000
    20     -0.1787469660
    21      0.0000000000
    22      0.0000000000
    23      0.9338955460
    24      0.5500682280
    25      0.0000000000
    26      0.0000000000
    27      0.0000000000
    28      0.0000000000
Ene=      0.00000000
Spin= Alpha
Occup=  0.006288
     1     -0.0000000000
     2     -0.0000000000
     3      0.0000000000
     4     -0.2893317410
     5      0.1653490150
     6     -0.0000000000
     7      0.3349853900
     8     -0.1914394190
     9      0.0000000000
    10     -0.0000000000
    11     -0.5459913310
    12      0.3120263080
    13      0.0000000000
    14     -0.0000000000
    15     -0.0000000000
    16     -0.0000000000
    17      0.0000000000
    18     -0.0378986615
    19      0.0216586182
    20      0.0000000000
    21      0.3490501270
    22     -0.1994772900
    23     -0.0000000000
    24     -0.0000000000
    25      0.4728097830
    26     -0.2702040970
    27      0.0000000000
    28     -0.0000000000
Ene=      0.00000000
Spin= Alpha
Occup=  0.006288
     1     -0.0000000000
     2     -0.0000000000
     3      0.0000000000
     4     -0.1653490150
     5     -0.2893317410
     6     -0.0000000000
     7      0.1914394190
     8      0.3349853900
     9      0.0000000000
    10     -0.0000000000
    11     -0.3120263080
    12     -0.5459913310
    13     -0.0000000000
    14      0.0000000000
    15     -0.0000000000
    16     -0.0000000000
    17      0.0000000000
    18     -0.0216586182
    19     -0.0378986615
    20      0.0000000000
    21      0.1994772900
    22      0.3490501270
    23     -0.0000000000
    24     -0.0000000000
    25      0.2702040970
    26      0.4728097830
    27     -0.0000000000
    28      0.0000000000
Ene=      0.00000000
Spin= Alpha
Occup=  0.004896
     1     -0.0000000000
     2     -0.0000000000
     3      0.0000000000
     4     -0.0000000000
     5     -0.0000000000
     6      0.0000000000
     7      0.0000000000
     8      0.0000000000
     9      0.0000000000
    10      0.0000000000
    11      0.0000000000
    12      0.0000000000
    13      0.4805229830
    14      0.3609969000
    15     -0.0000000000
    16     -0.0000000000
    17      0.0000000000
    18     -0.0000000000
    19     -0.0000000000
    20      0.0000000000
    21      0.0000000000
    22     -0.0000000000
    23     -0.0000000000
    24     -0.0000000000
    25      0.0000000000
    26      0.0000000000
    27      0.5750597960
    28      0.4320184900
Ene=      0.00000000
Spin= Alpha
Occup=  0.004896
     1      0.0000000000
     2      0.0000000000
     3     -0.0000000000
     4      0.0000000000
     5      0.0000000000
     6     -0.0000000000
     7     -0.0000000000
     8     -0.0000000000
     9      0.0000000000
    10     -0.0000000000
    11      0.0000000000
    12      0.0000000000
    13     -0.3609968860
    14      0.4805229780
    15      0.0000000000
    16      0.0000000000
    17     -0.0000000000
    18      0.0000000000
    19     -0.0000000000
    20     -0.0000000000
    21     -0.0000000000
    22      0.0000000000
    23      0.0000000000
    24      0.0000000000
    25      0.0000000000
    26     -0.0000000000
    27     -0.4320185020
    28      0.5750598000
Ene=      0.00000000
Spin= Alpha
Occup=  0.002163
     1     -0.0078670891
     2      0.1872194210
     3     -0.2045577610
     4     -0.0000000000
     5     -0.0000000000
     6      0.6613984340
     7      0.0000000000
     8      0.0000000000
     9     -0.4486549200
    10      1.1746252700
    11     -0.0000000000
    12     -0.0000000000
    13     -0.0000000000
    14      0.0000000000
    15     -0.5121808850
    16     -2.1383088600
    17      1.7599091000
    18      0.0000000000
    19      0.0000000000
    20      0.9946054180
    21      0.0000000000
    22      0.0000000000
    23     -0.8593909040
    24     -0.3987131080
    25     -0.0000000000
    26     -0.0000000000
    27      0.0000000000
    28     -0.0000000000
Ene=      0.00000000
Spin= Alpha
Occup=  0.002014
     1     -0.0000000000
     2     -0.0000000000
     3      0.0000000000
     4     -0.0000000000
     5     -0.0000000000
     6     -0.0000000000
     7      0.0000000000
     8      0.0000000000
     9      0.0000000000
    10     -0.0000000000
    11     -0.0000000000
    12     -0.0000000000
    13     -0.7824137930
    14     -0.2161852460
    15      0.0000000000
    16      0.0000000000
    17     -0.0000000000
    18      0.0000000000
    19      0.0000000000
    20     -0.0000000000
    21      0.0000000000
    22      0.0000000000
    23      0.0000000000
    24      0.0000000000
    25     -0.0000000000
    26     -0.0000000000
    27      0.6834703290
    28      0.1888466520
Ene=      0.00000000
Spin= Alpha
Occup=  0.002014
     1     -0.0000000000
     2     -0.0000000000
     3      0.0000000000
     4     -0.0000000000
     5     -0.0000000000
     6     -0.0000000000
     7      0.0000000000
     8      0.0000000000
     9      0.0000000000
    10     -0.0000000000
    11     -0.0000000000
    12     -0.0000000000
    13     -0.2161852570
    14      0.7824137930
    15      0.0000000000
    16      0.0000000000
    17     -0.0000000000
    18      0.0000000000
    19      0.0000000000
    20     -0.0000000000
    21      0.0000000000
    22      0.0000000000
    23      0.0000000000
    24      0.0000000000
    25     -0.0000000000
    26     -0.0000000000
    27      0.1888466390
    28     -0.6834703290
Ene=      0.00000000
Spin= Alpha
Occup=  0.001737
     1      0.0000000000
     2      0.0000000000
     3     -0.0000000000
     4     -0.3680801720
     5      1.0325164100
     6     -0.0000000000
     7      0.3897616210
     8     -1.0933359200
     9     -0.0000000000
    10     -0.0000000000
    11     -0.2011222250
    12      0.5641759500
    13     -0.0000000000
    14      0.0000000000
    15     -0.0000000000
    16     -0.0000000000
    17      0.0000000000
    18      0.0655827241
    19     -0.1839686570
    20     -0.0000000000
    21     -0.0123811725
    22      0.0347308704
    23     -0.0000000000
    24     -0.0000000000
    25     -0.2807549700
    26      0.7875569580
    27      0.0000000000
    28     -0.0000000000
Ene=      0.00000000
Spin= Alpha
Occup=  0.001737
     1      0.0000000000
     2      0.0000000000
     3     -0.0000000000
     4      1.0325164100
     5      0.3680801720
     6      0.0000000000
     7     -1.0933359200
     8     -0.3897616210
     9     -0.0000000000
    10      0.0000000000
    11      0.5641759500
    12      0.2011222250
    13     -0.0000000000
    14      0.0000000000
    15      0.0000000000
    16      0.0000000000
    17     -0.0000000000
    18     -0.1839686570
    19     -0.0655827241
    20      0.0000000000
    21      0.0347308704
    22      0.0123811725
    23      0.0000000000
    24     -0.0000000000
    25      0.7875569580
    26      0.2807549700
    27      0.0000000000
    28     -0.0000000000
Ene=      0.00000000
Spin= Alpha
Occup=  0.001024
     1     -0.6718398380
     2     -2.7462566800
     3      1.7641431400
     4      0.0000000000
     5      0.0000000000
     6     -1.4949763500
     7     -0.0000000000
     8     -0.0000000000
     9      1.2075524600
    10      0.1240027100
    11     -0.0000000000
    12     -0.0000000000
    13      0.0000000000
    14     -0.0000000000
    15     -0.2091741760
    16     -0.7418708900
    17      1.2600164800
    18     -0.0000000000
    19     -0.0000000000
    20      0.1722229510
    21      0.0000000000
    22      0.0000000000
    23     -1.3505865900
    24      0.9539430340
    25      0.0000000000
    26      0.0000000000
    27     -0.0000000000
    28      0.0000000000
Ene=      0.00000000
Spin= Alpha
Occup=  0.000697
     1     -0.0000000000
     2     -0.0000000000
     3      0.0000000000
     4     -0.0070185169
     5     -0.4132531750
     6     -0.0000000000
     7      0.0242009876
     8      1.4249654800
     9      0.0000000000
    10     -0.0000000000
    11      0.0141759571
    12      0.8346869610
    13     -0.0000000000
    14     -0.0000000000
    15     -0.0000000000
    16     -0.0000000000
    17      0.0000000000
    18      0.0063375204
    19      0.3731571320
    20      0.0000000000
    21     -0.0240195809
    22     -1.4142855100
    23     -0.0000000000
    24      0.0000000000
    25      0.0091739924
    26      0.5401696020
    27     -0.0000000000
    28     -0.0000000000
Ene=      0.00000000
Spin= Alpha
Occup=  0.000697
     1     -0.0000000000
     2     -0.0000000000
     3      0.0000000000
     4     -0.4132531750
     5      0.0070185169
     6     -0.0000000000
     7      1.4249654800
     8     -0.0242009876
     9      0.0000000000
    10      0.0000000000
    11      0.8346869610
    12     -0.0141759571
    13     -0.0000000000
    14      0.0000000000
    15      0.0000000000
    16      0.0000000000
    17     -0.0000000000
    18      0.3731571320
    19     -0.0063375204
    20      0.0000000000
    21     -1.4142855100
    22      0.0240195809
    23     -0.0000000000
    24      0.0000000000
    25      0.5401696020
    26     -0.0091739924
    27     -0.0000000000
    28     -0.0000000000
Ene=      0.00000000
Spin= Alpha
Occup=  0.000235
     1      0.2716119820
     2      1.1085766800
     3      2.1892528000
     4     -0.0000000000
     5      0.0000000000
     6      1.0830748700
     7     -0.0000000000
     8      0.0000000000
     9      1.7570678200
    10      0.8495884390
    11     -0.0000000000
    12      0.0000000000
    13      0.0000000000
    14      0.0000000000
    15      0.5889038750
    16      2.2320055700
    17     -6.0658028100
    18     -0.0000000000
    19      0.0000000000
    20      0.3235162970
    21      0.0000000000
    22     -0.0000000000
    23      1.4694824000
    24     -0.4050791860
    25     -0.0000000000
    26      0.0000000000
    27     -0.0000000000
    28     -0.0000000000
