[Molden Format]
[Title]
 Molden file created by orca_2mkl for BaseName=MRCI_10_8

[Atoms] AU
C    1   6          0.0000000000         0.0000000000         0.0000000000
O    2   8          0.0000000000         0.0000000000         2.1342566957
[GTO]
  1 0
s   8 1.0
     6665.0000000000         0.3635842998
     1000.0000000000         0.6749857928
      228.0000000000         1.1316199410
       64.7100000000         1.6530092121
       21.0600000000         1.9238206437
        7.4950000000         1.4472783162
        2.7970000000         0.4391631292
        0.5215000000         0.0066458037
s   8 1.0
     6665.0000000000        -0.1541797483
     1000.0000000000        -0.2937853735
      228.0000000000        -0.4808958038
       64.7100000000        -0.7614343161
       21.0600000000        -0.9001038923
        7.4950000000        -0.9726113518
        2.7970000000        -0.3940419460
        0.5215000000         0.4783944249
s   1 1.0
        0.1596000000         0.1799636353
p   3 1.0
        9.4390000000         1.3437371095
        2.0020000000         1.0631680879
        0.5456000000         0.5082318338
p   1 1.0
        0.1517000000         0.1349497436
d   1 1.0
        0.5500000000         1.0013935509

  2 0
s   8 1.0
    11720.0000000000         0.5697017158
     1759.0000000000         1.0583521000
      400.8000000000         1.7762810558
      113.7000000000         2.5994118899
       37.0300000000         3.0268459958
       13.2700000000         2.2223943344
        5.0250000000         0.6477954310
        1.0130000000         0.0111186960
s   8 1.0
    11720.0000000000        -0.2524342625
     1759.0000000000        -0.4804910908
      400.8000000000        -0.7862996613
      113.7000000000        -1.2541699039
       37.0300000000        -1.4912179216
       13.2700000000        -1.6108317779
        5.0250000000        -0.5497983753
        1.0130000000         0.7882822080
s   1 1.0
        0.3023000000         0.2905619240
p   3 1.0
       17.7000000000         3.2436193456
        3.8540000000         2.5672796523
        1.0460000000         1.1176693232
p   1 1.0
        0.2753000000         0.2842482844
d   1 1.0
        1.1850000000         3.8368709885

[5D]
[7F]
[9G]
[MO]
 Sym=     1a
 Ene= 1.00000000000000E+00
 Spin= Alpha
 Occup= 2.000000
  1      -0.001675085893
  2      -0.003043003718
  3      -0.005504743778
  4      -0.000000000000
  5      -0.000000000000
  6       0.002990770279
  7      -0.000000000000
  8      -0.000000000000
  9       0.002141712043
 10      -0.001135380159
 11       0.000000000000
 12      -0.000000000000
 13       0.000000000001
 14      -0.000000000001
 15       0.999981265614
 16      -0.022338214359
 17      -0.031665157743
 18       0.000000000000
 19      -0.000000000000
 20      -0.016407982082
 21       0.000000000000
 22       0.000000000000
 23      -0.008854130666
 24       0.000618662320
 25      -0.000000000000
 26      -0.000000000000
 27      -0.000000000000
 28      -0.000000000000
 Sym=     1a
 Ene= 1.00000000000000E+00
 Spin= Alpha
 Occup= 2.000000
  1      -1.001286130767
  2       0.012441706035
  3       0.023820097086
  4       0.000000000000
  5       0.000000000000
  6      -0.015336622562
  7       0.000000000000
  8       0.000000000000
  9      -0.006522125560
 10      -0.002304548296
 11      -0.000000000000
 12       0.000000000000
 13       0.000000000001
 14      -0.000000000001
 15      -0.001289987004
 16       0.006295436234
 17       0.010031376277
 18      -0.000000000000
 19      -0.000000000000
 20       0.005528120312
 21      -0.000000000000
 22      -0.000000000000
 23       0.001892531298
 24      -0.000078751734
 25      -0.000000000000
 26       0.000000000000
 27       0.000000000001
 28      -0.000000000001
 Sym=     1a
 Ene= 1.00000000000000E+00
 Spin= Alpha
 Occup= 1.985499
  1      -0.005420988672
  2      -0.158761511227
  3      -0.123107761020
  4      -0.000000000000
  5      -0.000000000000
  6      -0.099637977428
  7      -0.000000000000
  8      -0.000000000000
  9      -0.004365278087
 10      -0.030902507907
 11       0.000000000000
 12      -0.000000000000
 13      -0.000000007004
 14       0.000000006225
 15      -0.043406137767
 16      -0.466056355359
 17      -0.426942145449
 18       0.000000000000
 19      -0.000000000000
 20      -0.022529214663
 21       0.000000000000
 22       0.000000000000
 23      -0.075904891986
 24      -0.009140516531
 25       0.000000000000
 26       0.000000000000
 27       0.000000000089
 28      -0.000000000094
 Sym=     1a
 Ene= 1.00000000000000E+00
 Spin= Alpha
 Occup= 1.970314
  1      -0.002115258493
  2      -0.254537087543
  3       0.022110711706
  4       0.000000000000
  5       0.000000000000
  6      -0.308050524140
  7       0.000000000000
  8       0.000000000000
  9      -0.008561168707
 10      -0.034365199078
 11      -0.000000000000
 12       0.000000000000
 13       0.000000027971
 14      -0.000000025450
 15       0.027571635554
 16       0.070603619303
 17       0.228939505506
 18      -0.000000000000
 19      -0.000000000000
 20       0.574602684601
 21      -0.000000000000
 22      -0.000000000000
 23       0.291419413056
 24      -0.030565399814
 25       0.000000000000
 26       0.000000000000
 27      -0.000000002746
 28       0.000000002561
 Sym=     1a
 Ene= 1.00000000000000E+00
 Spin= Alpha
 Occup= 1.947175
  1       0.028828867352
  2       0.359316730083
  3       0.612414137063
  4       0.000000000000
  5       0.000000000000
  6      -0.382478411287
  7      -0.000000000000
  8       0.000000000000
  9      -0.157333398821
 10      -0.032193152640
 11      -0.000000000000
 12       0.000000000000
 13       0.000000063399
 14      -0.000000056595
 15       0.000048661759
 16      -0.135809041048
 17      -0.162180614896
 18      -0.000000000000
 19       0.000000000000
 20       0.099743183610
 21      -0.000000000000
 22       0.000000000000
 23       0.068376776196
 24      -0.006373632440
 25       0.000000000000
 26      -0.000000000000
 27      -0.000000000925
 28       0.000000000858
 Sym=     1a
 Ene= 1.00000000000000E+00
 Spin= Alpha
 Occup= 1.938040
  1       0.000000000000
  2       0.000000000000
  3      -0.000000000000
  4      -0.295702177753
  5       0.116575366156
  6       0.000000000000
  7      -0.131235805434
  8       0.051737268478
  9      -0.000000000000
 10      -0.000000000000
 11      -0.054391671460
 12       0.021442994391
 13       0.000000000000
 14       0.000000000000
 15      -0.000000000000
 16      -0.000000000000
 17      -0.000000000000
 18      -0.512058414589
 19       0.201870433628
 20      -0.000000000000
 21      -0.310624855749
 22       0.122458854881
 23      -0.000000000000
 24       0.000000000000
 25       0.025737197021
 26      -0.010146451227
 27      -0.000000000000
 28      -0.000000000000
 Sym=     1a
 Ene= 1.00000000000000E+00
 Spin= Alpha
 Occup= 1.938040
  1       0.000000000000
  2      -0.000000000000
  3      -0.000000000000
  4       0.116576002320
  5       0.295703846393
  6       0.000000000000
  7       0.051737801927
  8       0.131237245158
  9      -0.000000000000
 10       0.000000000000
 11       0.021442973546
 12       0.054391618799
 13       0.000000000000
 14       0.000000000000
 15      -0.000000000000
 16      -0.000000000000
 17       0.000000000000
 18       0.201870060303
 19       0.512057449004
 20       0.000000000000
 21       0.122458394019
 22       0.310623603387
 23       0.000000000000
 24      -0.000000000000
 25      -0.010146464463
 26      -0.025737231292
 27      -0.000000000000
 28       0.000000000000
 Sym=     1a
 Ene= 1.00000000000000E+00
 Spin= Alpha
 Occup= 0.064873
  1      -0.000000000000
  2      -0.000000000000
  3      -0.000000000000
  4       0.652100240113
  5      -0.222297824941
  6      -0.000000000000
  7       0.258924427938
  8      -0.088266253032
  9       0.000000000000
 10       0.000000000000
 11      -0.013836912697
 12       0.004716966268
 13       0.000000000000
 14      -0.000000000000
 15       0.000000000000
 16       0.000000000000
 17      -0.000000000000
 18      -0.592584434362
 19       0.202008639844
 20      -0.000000000000
 21      -0.065183107790
 22       0.022221505651
 23      -0.000000000000
 24       0.000000000000
 25      -0.033339232836
 26       0.011365273687
 27      -0.000000000000
 28      -0.000000000000
 Sym=     1a
 Ene= 1.00000000000000E+00
 Spin= Alpha
 Occup= 0.064873
  1       0.000000000000
  2       0.000000000000
  3       0.000000000000
  4      -0.222297490789
  5      -0.652099532320
  6      -0.000000000000
  7      -0.088266070031
  8      -0.258923879503
  9       0.000000000000
 10       0.000000000000
 11       0.004716357974
 12       0.013835534001
 13      -0.000000000000
 14      -0.000000000000
 15      -0.000000000000
 16      -0.000000000000
 17       0.000000000000
 18       0.202009550091
 19       0.592586553197
 20       0.000000000000
 21       0.022221821120
 22       0.065183755332
 23       0.000000000000
 24      -0.000000000000
 25       0.011365162836
 26       0.033338984220
 27      -0.000000000000
 28       0.000000000000
 Sym=     1a
 Ene= 1.00000000000000E+00
 Spin= Alpha
 Occup= 0.023202
  1      -0.099738976427
  2      -0.414514805810
  3      -0.192358047071
  4       0.000000000000
  5       0.000000000000
  6      -0.883163657575
  7      -0.000000000000
  8       0.000000000000
  9      -0.104105276040
 10       0.062538770721
 11       0.000000000000
 12       0.000000000000
 13       0.000000272397
 14      -0.000000248330
 15       0.121879772475
 16       0.435874007191
 17       0.287235426249
 18       0.000000000000
 19       0.000000000000
 20      -0.813520175995
 21      -0.000000000000
 22      -0.000000000000
 23       0.041171173222
 24      -0.061753787080
 25       0.000000000000
 26       0.000000000000
 27       0.000000117180
 28      -0.000000106354
 Sym=     1a
 Ene= 1.00000000000000E+00
 Spin= Alpha
 Occup= 0.010683
  1      -0.315475571079
  2      -0.811607692437
  3       1.006378327892
  4       0.000000000000
  5       0.000000000000
  6       0.229889705354
  7       0.000000000000
  8       0.000000000000
  9      -0.041435370510
 10      -0.082804076313
 11       0.000000000000
 12       0.000000000000
 13      -0.000000121444
 14       0.000000108595
 15      -0.348346621503
 16      -0.904212216231
 17       0.624634581299
 18       0.000000000000
 19       0.000000000000
 20      -0.483979429699
 21      -0.000000000000
 22      -0.000000000000
 23       0.573059901253
 24      -0.023481037558
 25      -0.000000000000
 26      -0.000000000000
 27      -0.000000128045
 28       0.000000112882
 Sym=     1a
 Ene= 1.00000000000000E+00
 Spin= Alpha
 Occup= 0.007391
  1      -0.425164773822
  2      -1.083978791533
  3       1.196677208304
  4      -0.000000000000
  5      -0.000000000000
  6       0.449991871756
  7       0.000000000000
  8      -0.000000000000
  9      -0.424895409293
 10      -0.012958274216
 11       0.000000000000
 12       0.000000000000
 13       0.000001236124
 14      -0.000001108640
 15       0.337297734460
 16       0.830946538206
 17      -0.932846588068
 18      -0.000000000000
 19      -0.000000000000
 20       0.200687174907
 21       0.000000000000
 22       0.000000000000
 23      -0.204788561433
 24      -0.046328663275
 25       0.000000000000
 26       0.000000000000
 27       0.000000629614
 28      -0.000000556719
 Sym=     1a
 Ene= 1.00000000000000E+00
 Spin= Alpha
 Occup= 0.006588
  1       0.000000000000
  2       0.000000000000
  3      -0.000000000000
  4      -0.425355902971
  5       0.160807382445
  6      -0.000000000000
  7       0.063020953676
  8      -0.023824811530
  9       0.000000000000
 10       0.000000000000
 11       0.439669024770
 12      -0.166208741786
 13      -0.000000000000
 14       0.000000000000
 15      -0.000000000000
 16      -0.000000000000
 17       0.000000000000
 18      -0.723272194998
 19       0.273432874243
 20      -0.000000000000
 21       0.761087535421
 22      -0.287734719971
 23       0.000000000000
 24      -0.000000000000
 25       0.013967106016
 26      -0.005284629428
 27       0.000000000000
 28       0.000000000000
 Sym=     1a
 Ene= 1.00000000000000E+00
 Spin= Alpha
 Occup= 0.006588
  1      -0.000000000000
  2      -0.000000000000
  3       0.000000000000
  4       0.160812548794
  5       0.425368898879
  6      -0.000000000000
  7      -0.023831533309
  8      -0.063037730921
  9      -0.000000000000
 10      -0.000000000000
 11      -0.166204100003
 12      -0.439657145180
 13      -0.000000000000
 14       0.000000000000
 15       0.000000000000
 16       0.000000000000
 17      -0.000000000000
 18       0.273432319055
 19       0.723270837555
 20       0.000000000000
 21      -0.287735760054
 22      -0.761090396910
 23      -0.000000000000
 24      -0.000000000000
 25      -0.005288012921
 26      -0.013975615383
 27      -0.000000000000
 28       0.000000000000
 Sym=     1a
 Ene= 1.00000000000000E+00
 Spin= Alpha
 Occup= 0.005695
  1       0.188324238626
  2       0.398135313486
  3       0.229113346862
  4       0.000000000000
  5      -0.000000000000
  6       0.385137492786
  7      -0.000000000000
  8       0.000000000000
  9      -0.264149147577
 10       0.359069936199
 11       0.000000000000
 12      -0.000000000000
 13       0.000001910102
 14      -0.000001724611
 15       0.060211179922
 16       0.126513656886
 17      -0.567730601478
 18       0.000000000000
 19       0.000000000000
 20      -0.126825112242
 21      -0.000000000000
 22      -0.000000000000
 23       0.828636294423
 24       0.572039804056
 25      -0.000000000000
 26       0.000000000000
 27       0.000001224383
 28      -0.000001110054
 Sym=     1a
 Ene= 1.00000000000000E+00
 Spin= Alpha
 Occup= 0.005570
  1       0.000000000000
  2       0.000000000000
  3       0.000000000000
  4      -0.042156042954
  5       0.235249759503
  6       0.000000000000
  7       0.037946142687
  8      -0.211756478552
  9      -0.000000000000
 10       0.000000000000
 11      -0.101768738311
 12       0.567924348587
 13       0.000000000000
 14       0.000000000000
 15       0.000000000000
 16       0.000000000000
 17      -0.000000000000
 18      -0.018856528092
 19       0.105227543266
 20      -0.000000000000
 21       0.080861511944
 22      -0.451248171529
 23       0.000000000000
 24       0.000000000000
 25       0.100187273512
 26      -0.559094648411
 27       0.000000000000
 28      -0.000000000000
 Sym=     1a
 Ene= 1.00000000000000E+00
 Spin= Alpha
 Occup= 0.005570
  1       0.000000000000
  2       0.000000000000
  3       0.000000000000
  4      -0.235256476012
  5      -0.042147301642
  6       0.000000000000
  7       0.211758147072
  8       0.037943982659
  9      -0.000000000000
 10       0.000000000000
 11      -0.567917279812
 12      -0.101777870771
 13      -0.000000000000
 14      -0.000000000000
 15       0.000000000000
 16       0.000000000000
 17      -0.000000000000
 18      -0.105237539630
 19      -0.018843534211
 20      -0.000000000000
 21       0.451258329832
 22       0.080848276371
 23       0.000000000000
 24       0.000000000000
 25       0.559095329539
 26       0.100186438625
 27      -0.000000000000
 28      -0.000000000000
 Sym=     1a
 Ene= 1.00000000000000E+00
 Spin= Alpha
 Occup= 0.004457
  1       0.000000007625
  2       0.000000020132
  3      -0.000000020105
  4      -0.000000000000
  5      -0.000000000000
  6      -0.000000009111
  7      -0.000000000000
  8       0.000000000000
  9       0.000000020426
 10       0.000000000670
 11      -0.000000000000
 12      -0.000000000000
 13       0.394456775783
 14       0.430957884381
 15      -0.000000010227
 16      -0.000000025647
 17       0.000000019343
 18      -0.000000000000
 19      -0.000000000000
 20      -0.000000000282
 21       0.000000000000
 22       0.000000000000
 23      -0.000000001979
 24      -0.000000014510
 25      -0.000000000000
 26      -0.000000000000
 27       0.495354143846
 28       0.541190110081
 Sym=     1a
 Ene= 1.00000000000000E+00
 Spin= Alpha
 Occup= 0.004457
  1       0.000000270991
  2       0.000001111798
  3      -0.000003477628
  4      -0.000000000000
  5      -0.000000000000
  6      -0.000000706393
  7      -0.000000000000
  8       0.000000000000
  9       0.000000704931
 10       0.000000649320
 11      -0.000000000000
 12      -0.000000000000
 13       0.430963754126
 14      -0.394462030797
 15      -0.000001882210
 16      -0.000004294008
 17       0.000005286187
 18       0.000000000000
 19       0.000000000000
 20       0.000001275889
 21      -0.000000000000
 22       0.000000000000
 23      -0.000002769405
 24      -0.000002558005
 25      -0.000000000000
 26       0.000000000000
 27       0.541185164551
 28      -0.495349716244
 Sym=     1a
 Ene= 1.00000000000000E+00
 Spin= Alpha
 Occup= 0.001952
  1      -0.012111960805
  2       0.080787401531
  3      -0.049278782724
  4       0.000000000000
  5       0.000000000000
  6       0.441091453032
  7      -0.000000000000
  8      -0.000000000000
  9      -0.107865298440
 10       1.188104675819
 11       0.000000000000
 12       0.000000000000
 13       0.000017052295
 14      -0.000015410337
 15      -0.500468984866
 16      -1.060936263816
 17       0.467582438857
 18       0.000000000000
 19       0.000000000000
 20       0.681692957191
 21      -0.000000000000
 22      -0.000000000000
 23      -0.389717793852
 24      -0.398962148861
 25       0.000000000000
 26       0.000000000000
 27      -0.000015919782
 28       0.000014397974
 Sym=     1a
 Ene= 1.00000000000000E+00
 Spin= Alpha
 Occup= 0.001832
  1      -0.000000369356
  2      -0.000003651245
  3       0.000000124165
  4       0.000000000000
  5       0.000000000000
  6      -0.000014643426
  7      -0.000000000000
  8      -0.000000000000
  9       0.000003964849
 10      -0.000034865481
 11       0.000000000000
 12       0.000000000000
 13       0.641315619151
 14      -0.517216349372
 15       0.000013872349
 16       0.000029395168
 17      -0.000010641447
 18      -0.000000000000
 19      -0.000000000000
 20      -0.000019622059
 21      -0.000000000000
 22      -0.000000000000
 23       0.000008883380
 24       0.000012324774
 25       0.000000000000
 26       0.000000000000
 27      -0.540341273542
 28       0.435783260419
 Sym=     1a
 Ene= 1.00000000000000E+00
 Spin= Alpha
 Occup= 0.001832
  1      -0.000000021518
  2      -0.000000206904
  3       0.000000014282
  4       0.000000000000
  5       0.000000000000
  6      -0.000000825608
  7      -0.000000000000
  8      -0.000000000000
  9       0.000000229398
 10      -0.000001963447
 11       0.000000000000
 12       0.000000000000
 13      -0.517220328744
 14      -0.641319540721
 15       0.000000782632
 16       0.000001657952
 17      -0.000000608613
 18      -0.000000000000
 19      -0.000000000000
 20      -0.000001105836
 21      -0.000000000000
 22      -0.000000000000
 23       0.000000503282
 24       0.000000698395
 25       0.000000000000
 26       0.000000000000
 27       0.435778263750
 28       0.540336349469
 Sym=     1a
 Ene= 1.00000000000000E+00
 Spin= Alpha
 Occup= 0.001523
  1      -0.000000000000
  2      -0.000000000000
  3      -0.000000000000
  4       0.669889711225
  5      -0.256378987401
  6      -0.000000000000
  7      -0.534750540217
  8       0.204659939644
  9      -0.000000000000
 10      -0.000000000000
 11       0.623514848224
 12      -0.238628740962
 13       0.000000000000
 14       0.000000000000
 15      -0.000000000000
 16      -0.000000000000
 17       0.000000000000
 18      -0.103513353308
 19       0.039616265690
 20      -0.000000000000
 21      -0.136473205713
 22       0.052229463634
 23      -0.000000000000
 24       0.000000000000
 25       0.798257227596
 26      -0.305506298679
 27      -0.000000000000
 28      -0.000000000000
 Sym=     1a
 Ene= 1.00000000000000E+00
 Spin= Alpha
 Occup= 0.001523
  1      -0.000000000000
  2      -0.000000000000
  3       0.000000000000
  4       0.256376970018
  5       0.669884465987
  6      -0.000000000000
  7      -0.204657637925
  8      -0.534744472635
  9       0.000000000000
 10      -0.000000000000
 11       0.238631450643
 12       0.623521841253
 13       0.000000000000
 14       0.000000000000
 15       0.000000000000
 16       0.000000000000
 17       0.000000000000
 18      -0.039617916644
 19      -0.103517495547
 20      -0.000000000000
 21      -0.052229094985
 22      -0.136472409979
 23      -0.000000000000
 24       0.000000000000
 25       0.305507185992
 26       0.798259607404
 27      -0.000000000000
 28      -0.000000000000
 Sym=     1a
 Ene= 1.00000000000000E+00
 Spin= Alpha
 Occup= 0.000914
  1       0.683435395189
  2       1.391284703149
  3      -0.108860793587
  4       0.000000000000
  5       0.000000000000
  6       1.026412360792
  7       0.000000000000
  8       0.000000000000
  9      -0.465932223258
 10      -0.088970373540
 11       0.000000000000
 12       0.000000000000
 13       0.000000606769
 14      -0.000000551880
 15       0.220340242937
 16       0.398585250531
 17      -0.948429366323
 18       0.000000000000
 19       0.000000000000
 20      -0.113865047851
 21      -0.000000000000
 22      -0.000000000000
 23       1.324636226342
 24      -0.950220087928
 25       0.000000000000
 26       0.000000000000
 27      -0.000000794783
 28       0.000000720703
 Sym=     1a
 Ene= 1.00000000000000E+00
 Spin= Alpha
 Occup= 0.000609
  1       0.000000000000
  2       0.000000000000
  3       0.000000000000
  4       0.090854276551
  5       0.306045125255
  6       0.000000000000
  7      -0.362001542508
  8      -1.219410077193
  9      -0.000000000000
 10       0.000000000000
 11      -0.223825902443
 12      -0.753972109954
 13      -0.000000000000
 14      -0.000000000000
 15      -0.000000000000
 16      -0.000000000000
 17      -0.000000000000
 18      -0.076851315119
 19      -0.258870120244
 20      -0.000000000000
 21       0.353514941579
 22       1.190820253559
 23       0.000000000000
 24      -0.000000000000
 25      -0.138681580509
 26      -0.467157179015
 27       0.000000000000
 28       0.000000000000
 Sym=     1a
 Ene= 1.00000000000000E+00
 Spin= Alpha
 Occup= 0.000609
  1       0.000000000000
  2       0.000000000000
  3       0.000000000000
  4       0.306044321294
  5      -0.090853944548
  6       0.000000000000
  7      -1.219407915592
  8       0.362000548530
  9       0.000000000000
 10       0.000000000000
 11      -0.753978586437
 12       0.223829010374
 13      -0.000000000000
 14      -0.000000000000
 15       0.000000000000
 16       0.000000000000
 17      -0.000000000001
 18      -0.258865085458
 19       0.076848810343
 20       0.000000000000
 21       1.190816150190
 22      -0.353512893292
 23       0.000000000000
 24      -0.000000000000
 25      -0.467160311495
 26       0.138683054985
 27       0.000000000000
 28       0.000000000000
 Sym=     1a
 Ene= 1.00000000000000E+00
 Spin= Alpha
 Occup= 0.000192
  1      -0.257319061538
  2      -0.521511340070
  3      -2.833879454757
  4      -0.000000000000
  5      -0.000000000000
  6      -0.692463870809
  7      -0.000000000000
  8       0.000000000000
  9      -2.281514500621
 10      -0.832913714651
 11      -0.000000000000
 12       0.000000000000
 13      -0.000000196984
 14       0.000000179429
 15      -0.585588087577
 16      -1.127985835825
 17       4.761210378683
 18      -0.000000000000
 19       0.000000000000
 20      -0.209797403034
 21       0.000000000000
 22      -0.000000000000
 23      -1.599689114283
 24       0.381519522180
 25      -0.000000000000
 26       0.000000000000
 27      -0.000000070544
 28       0.000000070479
