[Molden Format]
made by pyscf v[2.3.0]
[Atoms] (AU)
C   1   6     0.00000000000000     0.00000000000000     0.00000000000000
O   2   8     0.00000000000000     0.00000000000000     2.13425668508378
[GTO]
1 0
 s    8 1.00
                  6665  0.00069158396281299
                  1000  0.0053257961529341
                   228   0.027060721042034
                 64.71    0.10165684614077
                 21.06     0.2745748236174
                 7.495    0.44829431892377
                 2.797    0.28490261071525
                0.5215   0.015194859206082
 s    8 1.00
                  6665  -0.00029326965268655
                  1000  -0.0023180354739745
                   228  -0.011499786038565
                 64.71  -0.046826727009787
                 21.06   -0.12846616875047
                 7.495   -0.30126627246289
                 2.797   -0.25563070233011
                0.5215      1.093793361012
 s    1 1.00
                0.1596                   1
 p    3 1.00
                 9.439   0.056979251590039
                 2.002    0.31320721150073
                0.5456    0.76037674173753
 p    1 1.00
                0.1517                   1
 d    1 1.00
                  0.55                   1

2 0
 s    8 1.00
                 11720  0.00070964594651845
                  1759  0.0054672722921914
                 400.8   0.027823118610189
                 113.7    0.10474773971146
                 37.03    0.28292084635691
                 13.27    0.44849523869833
                 5.025    0.27081688521277
                 1.013    0.01545029160744
 s    8 1.00
                 11720  -0.00031444341168873
                  1759  -0.0024821376810179
                 400.8  -0.012316355381583
                 113.7  -0.050538917343672
                 37.03   -0.13938490331632
                 13.27   -0.32507749481778
                 5.025   -0.22984830758785
                 1.013     1.0953793467883
 s    1 1.00
                0.3023                   1
 p    3 1.00
                  17.7   0.062679166281506
                 3.854    0.33353656587936
                 1.046    0.74123964163973
 p    1 1.00
                0.2753                   1
 d    1 1.00
                 1.185                   1

[5d]
[7f]
[9g]

[MO]
 Sym= A
 Ene=               0
 Spin= Alpha
 Occup=    2.00000
   1    0.00055398570595798
   2    3.3566042787471e-05
   3    -0.0018671437296804
   4    2.7251424394735e-16
   5    1.4910817785539e-17
   6    0.00028088150926459
   7    -1.8536395323051e-16
   8    -1.9755999183146e-16
   9    -0.0011724181566425
  10    0.00057500228398483
  11    -2.2262752521471e-18
  12    -1.8332164234556e-16
  13    -1.2531682912372e-20
  14    9.9036837361256e-17
  15      -1.0011709123086
  16    -0.0016335822251972
  17     0.004919068199891
  18    -1.1461204276297e-17
  19    -2.3699097256859e-16
  20    0.0017642103610193
  21    -1.6901052403123e-17
  22    -1.4361961991937e-16
  23    -0.0012675571058559
  24    -0.00039862683242032
  25    1.1737303773202e-18
  26    1.2513467567118e-17
  27    -1.1320131444181e-18
  28    -7.8784760619085e-19
 Sym= A
 Ene=               0
 Spin= Alpha
 Occup=    2.00000
   1       1.0013053513244
   2    0.0020971145914115
   3    -0.00061486416421041
   4    3.1034184604066e-18
   5    -7.1258850802878e-18
   6    0.0038332910029402
   7    -6.6654292902901e-19
   8    3.5027964507007e-18
   9    0.00095108647349865
  10    0.0019115501006085
  11    6.7155314973508e-19
  12    -8.4107829964233e-19
  13    -1.1726100930128e-19
  14    -1.4936279555693e-18
  15    0.00026755047732542
  16    0.00066342741389684
  17    -0.0039729957951274
  18    3.6078353021248e-19
  19    1.0946584848092e-18
  20    -0.00031843374271122
  21    2.2392004678837e-19
  22    1.0850320364373e-18
  23    0.0025246286069492
  24    5.590062162184e-05
  25    3.7001369646044e-19
  26    -8.9048862143271e-19
  27    -3.2739526730986e-20
  28    -2.4509494042036e-19
 Sym= A
 Ene=               0
 Spin= Alpha
 Occup=    1.98436
   1    -0.018172256497478
   2      0.16710265757697
   3      0.11327959988943
   4    3.1645434822999e-16
   5    1.1824529375574e-15
   6      0.12362424681275
   7    4.4806153796116e-16
   8    9.5410440700094e-16
   9    0.0085232262375065
  10     0.033551249499453
  11    7.8185223125455e-17
  12    2.4419820667889e-16
  13    1.290687381438e-17
  14    -2.5221434329583e-18
  15     -0.00564895927131
  16      0.46452313417503
  17      0.41454141654158
  18    8.6878488280987e-16
  19    2.5078219765111e-15
  20     -0.01185182926123
  21    5.457490030451e-16
  22    1.4612893465447e-15
  23     0.058599262883211
  24     0.010952266053956
  25    -4.2403318069398e-17
  26    -1.223539370796e-16
  27    -3.2549887406047e-18
  28    -7.4938437149684e-19
 Sym= A
 Ene=               0
 Spin= Alpha
 Occup=    1.96898
   1    0.0059398759094603
   2      0.24878425180254
   3    -0.025233688107027
   4    -5.4550361645531e-16
   5    2.3650500092972e-15
   6      0.29775273408216
   7    -2.4442114103088e-16
   8    8.7757915146602e-16
   9     0.004775128473492
  10     0.032156907830052
  11    -1.1127202976884e-16
  12    3.6678160543786e-16
  13    -9.380371595437e-18
  14    2.218258118188e-17
  15    -0.0045297997735593
  16    -0.099032180179024
  17      -0.2527879895535
  18    -9.7615182474746e-16
  19    3.3816792235178e-15
  20     -0.57495733741155
  21    -6.0334334163298e-16
  22    2.1062522969163e-15
  23     -0.29462776779437
  24     0.030059592764489
  25    4.8867641689093e-17
  26    -1.7499948925473e-16
  27    -3.4734123130315e-18
  28    -2.4438560279544e-18
 Sym= A
 Ene=               0
 Spin= Alpha
 Occup=    1.94223
   1    0.0048458264611695
   2      -0.3599898238578
   3     -0.61560520860664
   4    -6.4691379243058e-15
   5    -7.5326775485473e-15
   6      0.38395003799591
   7    -2.8311953581441e-15
   8    -3.2780356144041e-15
   9      0.15641315515073
  10     0.032380172232181
  11    -1.1845967152982e-15
  12    -1.3737093202617e-15
  13    3.3066383543083e-17
  14    -4.5503023913111e-18
  15    0.0026339670360707
  16      0.12681661908014
  17      0.15316027480489
  18    -1.1064598428749e-14
  19    -1.2863142226493e-14
  20     -0.10518831933086
  21    -6.6858884097095e-15
  22    -7.7927691708473e-15
  23    -0.072470669866309
  24    0.0065485423306816
  25    5.5867807201415e-16
  26    6.5037524311085e-16
  27    -5.3221322373104e-18
  28    -2.0655864675127e-19
 Sym= A
 Ene=               0
 Spin= Alpha
 Occup=    1.93806
   1    1.982668999942e-16
   2    -1.2717508350973e-14
   3    -1.9489595480131e-14
   4      0.21308509328348
   5      0.23660228171823
   6    1.0207073488768e-14
   7     0.093861393705561
   8      0.10422042937769
   9    4.793778878228e-15
  10    8.0742270427931e-16
  11     0.039331062705394
  12     0.043671845060128
  13    1.5438210039376e-17
  14    -8.9082097067834e-17
  15    -2.5635121390109e-16
  16    2.1167976266589e-15
  17    3.9861034794036e-15
  18      0.36872114084241
  19      0.40941513973013
  20    -1.1344796838458e-15
  21      0.22310786116276
  22      0.24773121482579
  23    -1.5166520838246e-15
  24    8.4799802712288e-17
  25    -0.018578302603287
  26     -0.02062870151382
  27    -2.0026052988091e-17
  28    -2.5493173664133e-17
 Sym= A
 Ene=               0
 Spin= Alpha
 Occup=    1.93806
   1    -1.0426739869866e-16
   2    1.6514524145093e-15
   3    6.4765273970958e-16
   4      0.23660228171823
   5     -0.21308509328348
   6    1.6339496111334e-15
   7      0.10422042937769
   8     -0.09386139370556
   9    -2.1248744147776e-16
  10    2.3107369946826e-16
  11     0.043671845060128
  12    -0.039331062705395
  13    -2.4687309294498e-16
  14    -2.5790076186017e-16
  15    1.5042003830126e-16
  16    1.0375316316695e-16
  17    -5.9535660306906e-16
  18      0.40941513973013
  19     -0.36872114084241
  20    -3.149882355808e-15
  21      0.24773121482579
  22     -0.22310786116276
  23    -1.4634470468909e-15
  24    1.7372196344107e-16
  25    -0.020628701513821
  26     0.018578302603287
  27    -2.8688986497255e-17
  28    -4.2922955747313e-18
 Sym= A
 Ene=               0
 Spin= Alpha
 Occup=    0.06404
   1    4.5970630417195e-16
   2    1.043071495737e-15
   3    4.6219201108029e-15
   4     -0.57567429051089
   5     -0.37277918842904
   6    2.3129430840846e-16
   7     -0.23789565179851
   8     -0.15404986720797
   9    4.9148338331101e-15
  10    1.1062036410447e-15
  11     0.023987907072856
  12     0.015533423462071
  13    1.9253981376988e-16
  14    2.4458052586756e-16
  15    2.0413780068856e-15
  16    4.4643903019425e-15
  17    -1.0678554872721e-14
  18      0.51508950247019
  19      0.33354737195012
  20    9.2284317734235e-16
  21     0.067077102008688
  22     0.043435929068116
  23    1.3209829871184e-15
  24    -8.0567071134607e-16
  25     0.033011920041055
  26     0.021376943463062
  27    -1.0309513893153e-16
  28    -3.1680691989442e-16
 Sym= A
 Ene=               0
 Spin= Alpha
 Occup=    0.06404
   1    2.0188467945104e-15
   2    2.7628266766927e-15
   3    -7.2279106525199e-15
   4     -0.37277918842904
   5      0.57567429051088
   6    4.2478507651946e-16
   7     -0.15404986720799
   8      0.23789565179851
   9    -1.0659314877791e-14
  10    -8.8978924704068e-15
  11     0.015533423462063
  12    -0.023987907072868
  13    -3.7996574524567e-15
  14    2.8632115107296e-16
  15    3.5943997249345e-15
  16    8.4190810355314e-15
  17    4.3870932246891e-15
  18      0.33354737195012
  19     -0.51508950247019
  20    -5.5558549245413e-15
  21     0.043435929068139
  22    -0.067077102008681
  23    3.9127696872831e-15
  24    -7.7881854168571e-16
  25     0.021376943463062
  26    -0.033011920041066
  27    5.9249742243448e-16
  28    -5.5457749656527e-16
 Sym= A
 Ene=               0
 Spin= Alpha
 Occup=    0.02276
   1    -0.088459607805961
   2     -0.38540879249088
   3      -0.2043801402314
   4    -2.5262759147244e-15
   5    -1.8913044733453e-15
   6     -0.88049031611613
   7    2.8925526111086e-15
   8    1.2702270826699e-15
   9    -0.090718482043837
  10     0.079490092217752
  11    2.2801372751945e-15
  12    1.493540709778e-15
  13    -3.1830570319041e-16
  14    -8.2879042725062e-17
  15       0.1212895091143
  16       0.4347254355969
  17      0.26796343251835
  18    -4.0596782911255e-15
  19    3.8100583965393e-16
  20     -0.80216336697046
  21    2.5609605009394e-15
  22    -5.7900916181415e-16
  23     0.045369659448837
  24    -0.067143622442984
  25    -9.3896493632715e-18
  26    8.2926704907095e-17
  27    -1.4916574471058e-16
  28    -5.516011789893e-17
 Sym= A
 Ene=               0
 Spin= Alpha
 Occup=    0.01218
   1      0.32200878018144
   2      0.83406165099872
   3      -1.0717757516055
   4    -4.5995063350935e-15
   5    -1.858214323028e-14
   6     -0.24968082517996
   7    6.8875198244859e-15
   8    2.1349538593895e-14
   9     0.042214185472526
  10     0.065711690848687
  11    1.0137125684777e-15
  12    -2.664547609179e-15
  13    4.0718551968141e-16
  14    -1.9775528528271e-16
  15      0.32878078459888
  16      0.85829196574553
  17     -0.54004908197723
  18    -4.1223291760286e-15
  19    -6.4415120931935e-15
  20      0.48880220306065
  21    1.9641349264944e-15
  22    5.5132829297566e-15
  23     -0.60288474143159
  24     0.016360602380004
  25    7.0134041491902e-16
  26    4.1263462811625e-15
  27    1.073889011548e-17
  28    -1.3259205560625e-16
 Sym= A
 Ene=               0
 Spin= Alpha
 Occup=    0.00864
   1      0.42571931227202
   2       1.0805248180902
   3      -1.1188123711791
   4    -1.0541744638792e-14
   5    1.273209761753e-14
   6      -0.4171926858475
   7    3.2563648986695e-15
   8    -1.6749991569772e-15
   9      0.45189015665799
  10     0.016098687677942
  11    6.025081746124e-15
  12    2.7546528828215e-14
  13    1.1750235140279e-15
  14    1.1258473644074e-15
  15     -0.33441740167225
  16     -0.83364670025119
  17      0.86400439520473
  18    -1.0213200827548e-14
  19    1.2384294652504e-14
  20     -0.21263214920356
  21    1.1910728812976e-14
  22    -3.6672433348123e-14
  23      0.26627806425089
  24     0.049700434930166
  25    -2.6249176452951e-15
  26    -2.9896316075949e-14
  27    4.3024572164994e-16
  28    8.0403968925123e-16
 Sym= A
 Ene=               0
 Spin= Alpha
 Occup=    0.00727
   1    1.050722968755e-14
   2    2.1484804715804e-14
   3    -1.9637132083955e-14
   4     0.057472917459619
   5     -0.47110349639124
   6    -1.4934285841888e-15
   7    -0.012231384264216
   8       0.1002602294654
   9    -6.3110419416157e-15
  10    -2.2831527925068e-14
  11    -0.045857861755354
  12      0.37589529059731
  13    -2.379950239916e-14
  14    -4.5819008657624e-15
  15    -2.7973603511023e-15
  16    -1.036267419245e-14
  17    2.5267263999573e-14
  18     0.095495435609656
  19     -0.78277274921272
  20    -2.1421315931639e-14
  21     -0.10569486826936
  22      0.86637714237061
  23    2.5441382892782e-14
  24    -4.1459466780917e-15
  25    -0.012375178936274
  26      0.10143890936903
  27    -5.4147227519377e-15
  28    -4.8743543114783e-15
 Sym= A
 Ene=               0
 Spin= Alpha
 Occup=    0.00727
   1    5.5071903802549e-15
   2    1.4221235874775e-14
   3    -2.1784799363698e-14
   4      0.47110349639123
   5     0.057472917459676
   6    -1.4204909612898e-14
   7     -0.10026022946535
   8    -0.012231384264218
   9    8.339396303694e-15
  10    1.2228773407733e-15
  11     -0.37589529059721
  12    -0.045857861754978
  13    -9.0272603090453e-15
  14    -2.3267054513791e-14
  15    -1.762966100529e-15
  16    -3.5597447043699e-15
  17    9.873010364628e-15
  18      0.78277274921274
  19     0.095495435609665
  20    -2.6968553180413e-15
  21      -0.8663771423707
  22     -0.10569486826962
  23    -4.225889715437e-15
  24    1.7929410845805e-15
  25     -0.10143890936911
  26    -0.012375178936547
  27    -5.0593807204642e-15
  28    -9.2042584975487e-15
 Sym= A
 Ene=               0
 Spin= Alpha
 Occup=    0.00660
   1      0.21452734436798
   2      0.45231242663218
   3      0.20530375387728
   4    6.953510418127e-16
   5    3.2468864123473e-15
   6      0.42059995806153
   7    2.0407963286172e-15
   8    -7.0923773105028e-15
   9     -0.29682345594984
  10      0.34607131145472
  11    1.664279802998e-15
  12    -1.0043913105663e-15
  13    -1.1719015558129e-15
  14    -5.6503588466972e-16
  15     0.082021023884138
  16      0.17622375770335
  17     -0.61324544267504
  18    1.5169374941112e-15
  19    -8.4916745108099e-16
  20     -0.11823865377441
  21    -4.1093305515214e-15
  22    5.2028322469461e-15
  23      0.85523284888183
  24       0.5396002063192
  25    3.147645945849e-16
  26    6.9683844995446e-15
  27    9.6662649828625e-18
  28    -3.931604086773e-16
 Sym= A
 Ene=               0
 Spin= Alpha
 Occup=    0.00633
   1    5.5347189627455e-15
   2    1.0236068540592e-14
   3    -1.1523351854038e-14
   4     -0.21186115219425
   5    0.0049788931240944
   6    2.5859862383299e-15
   7      0.25089358639567
   8    -0.0058961840773651
   9    -1.2174428117915e-14
  10    -1.4684765899926e-14
  11     -0.65575747114068
  12     0.015410783573556
  13    -1.0788131202894e-14
  14    -2.2476851118312e-14
  15    2.9554169169293e-15
  16    5.718260146765e-15
  17    8.4962065902148e-15
  18     0.026735440811859
  19    -0.00062830255116682
  20    -9.7387093514755e-15
  21      0.31340952192669
  22    -0.007365354608834
  23    1.1613190417237e-14
  24    -3.2738262768324e-15
  25      0.52867077170251
  26    -0.012424152530383
  27    -5.5628523444156e-15
  28    -1.3256589381601e-14
 Sym= A
 Ene=               0
 Spin= Alpha
 Occup=    0.00633
   1    4.8503673000046e-14
   2    1.0090729574917e-13
   3    -8.8407969186828e-14
   4    -0.0049788931237411
   5     -0.21186115219444
   6    7.6350902384024e-16
   7     0.005896184077101
   8      0.25089358639589
   9    -3.0888798815398e-14
  10    -8.2687910597007e-14
  11    -0.015410783573802
  12     -0.65575747114071
  13    -9.0197861554829e-14
  14    4.7191853315986e-14
  15    8.3057117975499e-15
  16    7.4778934277532e-15
  17    5.0618787371331e-14
  18    0.0006283025515417
  19     0.026735440811861
  20    -6.2218468279974e-14
  21     0.007365354608518
  22      0.31340952192666
  23    8.2814714399078e-14
  24    -2.6118028452527e-14
  25     0.012424152530345
  26      0.52867077170239
  27    -3.3933866575672e-14
  28    1.9257740377945e-14
 Sym= A
 Ene=               0
 Spin= Alpha
 Occup=    0.00487
   1    -4.4050664696584e-16
   2    -1.3810577245177e-15
   3    4.0630266906728e-16
   4    -1.3366364666101e-15
   5    -3.240282346136e-14
   6    -4.9328947981812e-17
   7    7.1573869470733e-15
   8    3.3145417206045e-14
   9    -1.9242582704683e-15
  10    -1.5308706555561e-15
  11    -1.6076999911673e-14
  12    -5.1377020963065e-14
  13      0.59810991642547
  14     0.015283360247619
  15    7.5162305126705e-16
  16    1.7980078159851e-15
  17    3.1943075935964e-16
  18    1.2751946757413e-14
  19    -1.2630363776661e-14
  20    -1.1872125246073e-15
  21    -8.8880104613488e-15
  22    4.0741261133052e-14
  23    4.9251130733426e-16
  24    8.0964336481546e-16
  25    3.3633551864979e-15
  26    4.5707566276296e-14
  27      0.72138543199486
  28     0.018433390137478
 Sym= A
 Ene=               0
 Spin= Alpha
 Occup=    0.00487
   1    1.3353771197364e-15
   2    2.7879004042216e-15
   3    -3.6456131981991e-15
   4    5.0571014331793e-15
   5    -2.6872452858353e-14
   6    -2.5212525997641e-16
   7    -2.9414887198408e-14
   8    4.6649396692506e-14
   9    -1.5602001891307e-15
  10    -3.1040051186179e-15
  11    1.7304584957763e-14
  12    -2.9458317747384e-14
  13     0.015283360247621
  14     -0.59810991642546
  15    1.3687577734609e-16
  16    1.1066722765384e-16
  17    2.9874117459504e-15
  18    -2.5376587921456e-14
  19    1.1771167736239e-14
  20    -1.8054247110769e-15
  21    3.2951168794374e-14
  22    -1.0049771303628e-14
  23    1.5980329783652e-15
  24    -1.014158920894e-15
  25    -1.1415589490866e-14
  26    2.2181539445342e-14
  27     0.018433390137477
  28     -0.72138543199487
 Sym= A
 Ene=               0
 Spin= Alpha
 Occup=    0.00217
   1    -0.0076660006181456
   2     0.094191794658605
   3    -0.078130566200745
   4    1.7311415689604e-14
   5    -4.9740336017301e-14
   6      0.44316242371542
   7    -3.3664753179222e-14
   8    5.6341809405976e-14
   9     -0.12239676920546
  10        1.183170490337
  11    -8.5993315243387e-15
  12    -4.568341847084e-14
  13    9.2033789132603e-16
  14    -1.7911443253025e-15
  15     -0.50855877379737
  16      -1.0798062214673
  17      0.50512952547193
  18    -3.8023239266488e-15
  19    -4.0176660301009e-15
  20      0.68516349781951
  21    2.2201035366048e-14
  22    1.7981875469761e-14
  23      -0.3941104710514
  24     -0.39255707926154
  25    1.5021211849878e-14
  26    -2.5129941748783e-15
  27    6.8466997315364e-16
  28    -5.2449341928235e-16
 Sym= A
 Ene=               0
 Spin= Alpha
 Occup=    0.00198
   1    1.2446634978592e-15
   2    2.7508842166326e-15
   3    -1.8271190447686e-15
   4    1.9623204197689e-13
   5    2.6047244323319e-13
   6    1.2727439970738e-15
   7    -2.1375717253521e-13
   8    -3.1999406404422e-13
   9    -7.6483108672376e-16
  10    -6.0122727045576e-17
  11    1.126911786092e-13
  12    1.2444573795852e-13
  13     -0.79555052121346
  14      0.17105207723693
  15    -1.2340723351394e-16
  16    -4.1138711255949e-16
  17    3.3959662508238e-16
  18    -4.7481677577895e-14
  19    -5.3006588839648e-14
  20    3.1645282663547e-16
  21    4.2185165255599e-14
  22    7.3440488368521e-14
  23    9.7542495229208e-16
  24    -2.1288859017845e-15
  25    1.8667697869033e-13
  26    1.7852888451371e-13
  27      0.69088722856988
  28      -0.1485483227427
 Sym= A
 Ene=               0
 Spin= Alpha
 Occup=    0.00198
   1    7.6367619504057e-17
   2    1.406342850348e-16
   3    9.1099937921605e-16
   4    1.990081374881e-13
   5    -3.3170704113735e-13
   6    -5.021136022411e-16
   7    -2.6313148770681e-13
   8    4.1903454702678e-13
   9    1.4672905402137e-15
  10    -7.8489386847728e-16
  11    8.0466861642972e-14
  12    -1.3391259633352e-13
  13     -0.17105207723693
  14     -0.79555052121347
  15    5.132296841223e-16
  16    1.0215842685548e-15
  17    -1.9140641978158e-15
  18    -6.4596219503865e-14
  19    8.8875993539117e-14
  20    -5.0314707565645e-16
  21    1.0264762387427e-13
  22    -1.3907093554098e-13
  23    6.3370138498938e-16
  24    2.0793172451326e-16
  25    1.5735314813888e-13
  26    -2.6349245395464e-13
  27       0.1485483227427
  28      0.69088722856988
 Sym= A
 Ene=               0
 Spin= Alpha
 Occup=    0.00188
   1    -7.4665904787378e-15
   2    -7.3807634315081e-15
   3    -1.0090554150276e-13
   4     -0.44310201093331
   5      0.63375228922511
   6    -7.6913192765259e-15
   7      0.49332379603479
   8     -0.70558263639513
   9    -6.7473514992079e-14
  10    3.4379336144345e-14
  11     -0.23753066577868
  12      0.33973125710092
  13    6.6647130397857e-15
  14    -4.2251944128039e-13
  15    -4.355436557798e-14
  16    -8.8187358281975e-14
  17    1.7284857098658e-13
  18      0.10255100869858
  19      -0.1466748850636
  20    3.2420798555143e-14
  21     -0.10567824968486
  22      0.15114766127581
  23    -8.0176530706366e-14
  24    -8.3487585294441e-15
  25     -0.41864048164563
  26      0.59876587570984
  27    -1.6389089095339e-15
  28    3.3748068249986e-13
 Sym= A
 Ene=               0
 Spin= Alpha
 Occup=    0.00188
   1    1.3897242084355e-14
   2    3.176113518749e-14
   3    -9.5995058718195e-14
   4      0.63375228922518
   5      0.44310201093333
   6    -1.2487649868076e-15
   7     -0.70558263639515
   8     -0.49332379603493
   9    -6.5217113536262e-14
  10    -1.858983315076e-14
  11      0.33973125710109
  12      0.23753066577853
  13    3.0758867997454e-13
  14    -9.0949356615463e-14
  15    -1.2364989273692e-14
  16    -2.39568504259e-14
  17    1.091377712045e-13
  18     -0.14667488506353
  19     -0.10255100869858
  20    -2.3700331551728e-15
  21      0.15114766127561
  22        0.105678249685
  23    -2.0864221206723e-14
  24    -1.5946729777844e-14
  25      0.59876587570974
  26      0.41864048164555
  27    -2.5717369146165e-13
  28    7.6800469236588e-14
 Sym= A
 Ene=               0
 Spin= Alpha
 Occup=    0.00106
   1     -0.65909637414105
   2      -1.3407835665123
   3      0.27514859827804
   4    1.0378248487748e-14
   5    -4.1674058193375e-15
   6     -0.97187026959087
   7    -3.1199178640286e-15
   8    -1.3389130089811e-15
   9      0.58563387615659
  10      0.15144969831634
  11    1.301792696525e-14
  12    -3.1687304858754e-14
  13    -1.1482863727335e-15
  14    -5.8983796470624e-16
  15     -0.18520926435594
  16     -0.33092311356854
  17      0.65613964110869
  18    -9.9627523112682e-18
  19    -1.4947268078732e-14
  20      0.11944811191955
  21    -6.3454174164195e-15
  22    3.7959475466685e-14
  23      -1.1989321990708
  24      0.94758602278986
  25    2.9223108159102e-14
  26    3.4598517820551e-14
  27    1.3350831033301e-15
  28    -1.6680441258217e-15
 Sym= A
 Ene=               0
 Spin= Alpha
 Occup=    0.00092
   1    7.841218511607e-16
   2    2.7065814269573e-15
   3    -5.4717658886918e-14
   4     -0.12678774869144
   5    -0.0056152322180545
   6    3.1149362941852e-15
   7       1.0838339770142
   8     0.048001321338609
   9    -4.9947943709184e-14
  10    -3.5364521640734e-15
  11      0.93288660443913
  12     0.041316096950092
  13    -4.0054299450818e-15
  14    -3.7364685295449e-14
  15    -1.6610271172734e-14
  16    -3.4297241955487e-14
  17    9.1589882400145e-14
  18      0.23364001143235
  19     0.010347552765571
  20    2.9000005691327e-15
  21      -1.2402374717821
  22    -0.054928188893942
  23    -2.2557700008528e-14
  24    -8.4912749674648e-15
  25      0.68247571918073
  26      0.03022578826373
  27    3.0549304554918e-15
  28    1.5816529970662e-14
 Sym= A
 Ene=               0
 Spin= Alpha
 Occup=    0.00092
   1    5.6318445122432e-15
   2    1.3611103958813e-14
   3    -3.9149136733188e-14
   4    -0.0056152322180718
   5      0.12678774869133
   6    -3.8137766957858e-15
   7     0.048001321338648
   8      -1.0838339770141
   9    -2.116651574148e-14
  10    -5.5086330430675e-15
  11     0.041316096950095
  12     -0.93288660443919
  13    1.9532965701118e-14
  14    -5.786052770917e-14
  15    -4.6759350996969e-15
  16    -8.7663320890235e-15
  17    4.0480975547665e-14
  18     0.010347552765643
  19     -0.23364001143234
  20    2.6863365579894e-16
  21    -0.054928188894048
  22       1.2402374717821
  23    -1.0676315486367e-14
  24    -4.2492728845267e-15
  25     0.030225788263609
  26     -0.68247571918079
  27    -1.3642519865183e-14
  28    3.0563064965402e-14
 Sym= A
 Ene=               0
 Spin= Alpha
 Occup=    0.00034
   1      0.29384872076913
   2      0.59597506614636
   3       2.8305748966041
   4    -4.7318324896076e-16
   5    2.8510195493027e-14
   6      0.76272099464277
   7    1.8937234725606e-14
   8    -3.6917331882433e-14
   9       2.2443180628656
  10      0.83641887604315
  11    1.6624718503635e-14
  12    1.7362704026901e-15
  13    3.0019789645351e-16
  14    -1.1148858908419e-17
  15      0.60118931523602
  16        1.158968800749
  17      -4.8253101194536
  18    4.0437357142936e-15
  19    -1.3510249865668e-14
  20      0.21893690253063
  21    -2.2159021190191e-14
  22    2.3750903416257e-14
  23       1.6623908197063
  24     -0.43697183260512
  25    1.7482648674679e-14
  26    2.9453399443726e-14
  27    3.6589468549445e-16
  28    -7.9150263371003e-16
