3
Energy:     0.00000000
O       -1.37762626     0.00000000    -1.74019972
H       -1.37762626     0.75933700    -1.14415672
H       -1.37762626    -0.75933700    -1.14415672
