3    
Iteration 0 Energy  0.00000000
O       -1.3776262600    0.0000000000   -1.7401997200
H       -1.3776262600    0.7593370000   -1.1441567200
H       -1.3776262600   -0.7593370000   -1.1441567200
3    
Iteration 1 Energy  0.00000000
O       -1.3776262600    0.0000000000   -1.7401997200
H       -1.3776262600    0.7593370000   -1.1441567200
H       -1.3776262600   -0.7593370000   -1.1441567200
