[Molden Format]
[Title]
 Molden file created by orca_2mkl for BaseName=CCSD-unrelax

[Atoms] AU
C    1   6          0.0000000000         0.0000000000         0.0000000000
O    2   8          0.0000000000         0.0000000000         2.1342566957
[GTO]
  1 0
s   8 1.0
     6665.0000000000         0.3635842998
     1000.0000000000         0.6749857928
      228.0000000000         1.1316199410
       64.7100000000         1.6530092121
       21.0600000000         1.9238206437
        7.4950000000         1.4472783162
        2.7970000000         0.4391631292
        0.5215000000         0.0066458037
s   8 1.0
     6665.0000000000        -0.1541797483
     1000.0000000000        -0.2937853735
      228.0000000000        -0.4808958038
       64.7100000000        -0.7614343161
       21.0600000000        -0.9001038923
        7.4950000000        -0.9726113518
        2.7970000000        -0.3940419460
        0.5215000000         0.4783944249
s   1 1.0
        0.1596000000         0.1799636353
p   3 1.0
        9.4390000000         1.3437371095
        2.0020000000         1.0631680879
        0.5456000000         0.5082318338
p   1 1.0
        0.1517000000         0.1349497436
d   1 1.0
        0.5500000000         1.0013935509

  2 0
s   8 1.0
    11720.0000000000         0.5697017158
     1759.0000000000         1.0583521000
      400.8000000000         1.7762810558
      113.7000000000         2.5994118899
       37.0300000000         3.0268459958
       13.2700000000         2.2223943344
        5.0250000000         0.6477954310
        1.0130000000         0.0111186960
s   8 1.0
    11720.0000000000        -0.2524342625
     1759.0000000000        -0.4804910908
      400.8000000000        -0.7862996613
      113.7000000000        -1.2541699039
       37.0300000000        -1.4912179216
       13.2700000000        -1.6108317779
        5.0250000000        -0.5497983753
        1.0130000000         0.7882822080
s   1 1.0
        0.3023000000         0.2905619240
p   3 1.0
       17.7000000000         3.2436193456
        3.8540000000         2.5672796523
        1.0460000000         1.1176693232
p   1 1.0
        0.2753000000         0.2842482844
d   1 1.0
        1.1850000000         3.8368709885

[5D]
[7F]
[9G]
[MO]
 Sym=     1a
 Ene= -2.06693601767737E+01
 Spin= Alpha
 Occup= 2.000000
  1       1.001305499334
  2       0.002097131507
  3      -0.000616063080
  4      -0.000000000000
  5       0.000000000000
  6       0.003833470166
  7      -0.000000000000
  8       0.000000000000
  9       0.000950333271
 10       0.001911917772
 11      -0.000000000000
 12       0.000000000000
 13      -0.000000000000
 14      -0.000000000000
 15      -0.000375331664
 16       0.000662379058
 17      -0.003969834805
 18      -0.000000000000
 19       0.000000000000
 20      -0.000317302093
 21       0.000000000000
 22      -0.000000000000
 23       0.002523813009
 24       0.000055644751
 25       0.000000000000
 26       0.000000000000
 27       0.000000000000
 28       0.000000000000
 Sym=     1a
 Ene= -1.13671122414562E+01
 Spin= Alpha
 Occup= 2.000000
  1      -0.000088982977
  2       0.000032219726
  3      -0.001866749364
  4       0.000000000000
  5      -0.000000000000
  6       0.000278420292
  7      -0.000000000000
  8       0.000000000000
  9      -0.001173029121
 10       0.000573774855
 11      -0.000000000000
 12      -0.000000000000
 13       0.000000000000
 14       0.000000000000
 15      -1.001170878841
 16      -0.001634011247
 17       0.004921620773
 18       0.000000000000
 19       0.000000000000
 20       0.001764414691
 21       0.000000000000
 22      -0.000000000000
 23      -0.001269178199
 24      -0.000398663203
 25      -0.000000000000
 26      -0.000000000000
 27      -0.000000000000
 28      -0.000000000000
 Sym=     1a
 Ene= -1.52210292706379E+00
 Spin= Alpha
 Occup= 1.985177
  1       0.018015349195
  2      -0.166282213662
  3      -0.116088070622
  4      -0.000000000000
  5       0.000000000000
  6      -0.120496777963
  7       0.000000000000
  8       0.000000000000
  9      -0.009226644387
 10      -0.033258250809
 11       0.000000000000
 12       0.000000000000
 13      -0.000000000000
 14      -0.000000000000
 15       0.005790804904
 16      -0.464429734928
 17      -0.415377988508
 18       0.000000000000
 19       0.000000000000
 20       0.005899225924
 21      -0.000000000000
 22       0.000000000000
 23      -0.062475448235
 24      -0.010533847617
 25      -0.000000000000
 26       0.000000000000
 27       0.000000000000
 28       0.000000000000
 Sym=     1a
 Ene= -8.01996422566297E-01
 Spin= Alpha
 Occup= 1.971423
  1      -0.006468414956
  2      -0.253169612968
  3       0.022635913420
  4       0.000000000000
  5       0.000000000000
  6      -0.299480110284
  7       0.000000000000
  8       0.000000000000
  9      -0.003879222925
 10      -0.031881898052
 11      -0.000000000000
 12       0.000000000000
 13       0.000000000000
 14       0.000000000000
 15       0.004502896743
 16       0.095096822381
 17       0.250024686121
 18      -0.000000000000
 19      -0.000000000000
 20       0.573991439325
 21      -0.000000000000
 22      -0.000000000000
 23       0.292810726253
 24      -0.029925545066
 25       0.000000000000
 26      -0.000000000000
 27       0.000000000000
 28       0.000000000000
 Sym=     1a
 Ene= -6.33897071981866E-01
 Spin= Alpha
 Occup= 1.948064
  1      -0.004030305877
  2       0.360674256981
  3       0.610341175763
  4       0.000000000000
  5      -0.000000000000
  6      -0.387747386865
  7       0.000000000000
  8      -0.000000000000
  9      -0.157317013050
 10      -0.031884775483
 11       0.000000000000
 12      -0.000000000000
 13       0.000000000000
 14      -0.000000000000
 15      -0.002728973093
 16      -0.127417845892
 17      -0.150418458578
 18       0.000000000000
 19      -0.000000000000
 20       0.106395957501
 21       0.000000000000
 22      -0.000000000000
 23       0.071526185048
 24      -0.006594648651
 25      -0.000000000000
 26       0.000000000000
 27       0.000000000000
 28       0.000000000000
 Sym=     1a
 Ene= -6.33897071981856E-01
 Spin= Alpha
 Occup= 1.947861
  1      -0.000000000000
  2       0.000000000000
  3       0.000000000000
  4      -0.209661947966
  5       0.242429144037
  6      -0.000000000000
  7      -0.093122061294
  8       0.107675721940
  9      -0.000000000000
 10      -0.000000000000
 11      -0.038756967869
 12       0.044814133595
 13      -0.000000000000
 14      -0.000000000000
 15      -0.000000000000
 16      -0.000000000000
 17      -0.000000000000
 18      -0.359777470691
 19       0.416005599059
 20       0.000000000000
 21      -0.216621954904
 22       0.250476901587
 23       0.000000000000
 24      -0.000000000000
 25       0.018030739718
 26      -0.020848689229
 27      -0.000000000000
 28      -0.000000000000
 Sym=     1a
 Ene= -5.48958020183011E-01
 Spin= Alpha
 Occup= 1.947861
  1      -0.000000000000
  2       0.000000000000
  3       0.000000000000
  4       0.242429144037
  5       0.209661947966
  6      -0.000000000000
  7       0.107675721940
  8       0.093122061294
  9      -0.000000000000
 10      -0.000000000000
 11       0.044814133595
 12       0.038756967869
 13       0.000000000000
 14       0.000000000000
 15      -0.000000000000
 16      -0.000000000000
 17       0.000000000000
 18       0.416005599059
 19       0.359777470691
 20       0.000000000000
 21       0.250476901587
 22       0.216621954904
 23      -0.000000000000
 24       0.000000000000
 25      -0.020848689229
 26      -0.018030739718
 27       0.000000000000
 28      -0.000000000000
 Sym=     1a
 Ene= 1.54142771369951E-01
 Spin= Alpha
 Occup= 0.053978
  1      -0.000000000000
  2      -0.000000000000
  3      -0.000000000000
  4      -0.629304777228
  5      -0.245996476500
  6      -0.000000000000
  7      -0.247492213597
  8      -0.096745193600
  9      -0.000000000000
 10      -0.000000000000
 11       0.025591464152
 12       0.010003753726
 13       0.000000000000
 14       0.000000000000
 15      -0.000000000000
 16      -0.000000000000
 17       0.000000000000
 18       0.599602745779
 19       0.234385893924
 20       0.000000000000
 21       0.032875696132
 22       0.012851174349
 23      -0.000000000000
 24       0.000000000000
 25       0.039839473642
 26       0.015573328689
 27      -0.000000000000
 28       0.000000000000
 Sym=     1a
 Ene= 1.54142771369952E-01
 Spin= Alpha
 Occup= 0.053978
  1      -0.000000000000
  2      -0.000000000000
  3       0.000000000000
  4      -0.245996476500
  5       0.629304777228
  6       0.000000000000
  7      -0.096745193600
  8       0.247492213597
  9       0.000000000000
 10       0.000000000000
 11       0.010003753726
 12      -0.025591464152
 13      -0.000000000000
 14      -0.000000000000
 15       0.000000000000
 16      -0.000000000000
 17      -0.000000000000
 18       0.234385893924
 19      -0.599602745779
 20       0.000000000000
 21       0.012851174349
 22      -0.032875696132
 23       0.000000000000
 24       0.000000000000
 25       0.015573328689
 26      -0.039839473642
 27       0.000000000000
 28       0.000000000000
 Sym=     1a
 Ene= 3.82491974211721E-01
 Spin= Alpha
 Occup= 0.021260
  1      -0.082181697208
  2      -0.374345411932
  3      -0.208221437212
  4       0.000000000000
  5       0.000000000000
  6      -0.878865425609
  7      -0.000000000000
  8       0.000000000000
  9      -0.093247381614
 10       0.059275847485
 11      -0.000000000000
 12       0.000000000000
 13      -0.000000000000
 14      -0.000000000000
 15       0.128727675227
 16       0.449581999427
 17       0.260495328000
 18      -0.000000000000
 19      -0.000000000000
 20      -0.817537902875
 21       0.000000000000
 22      -0.000000000000
 23       0.064377979328
 24      -0.067043282878
 25      -0.000000000000
 26       0.000000000000
 27       0.000000000000
 28      -0.000000000000
 Sym=     1a
 Ene= 6.72170266592726E-01
 Spin= Alpha
 Occup= 0.011520
  1      -0.305287792434
  2      -0.788342645997
  3       0.973130852569
  4       0.000000000000
  5       0.000000000000
  6       0.217424330439
  7       0.000000000000
  8      -0.000000000000
  9      -0.049451947525
 10      -0.083303768509
 11       0.000000000000
 12       0.000000000000
 13       0.000000000000
 14      -0.000000000000
 15      -0.353847489344
 16      -0.916958030015
 17       0.654845790287
 18      -0.000000000000
 19      -0.000000000000
 20      -0.497849607126
 21      -0.000000000000
 22      -0.000000000000
 23       0.583270798299
 24      -0.019555528925
 25       0.000000000000
 26       0.000000000000
 27      -0.000000000000
 28      -0.000000000000
 Sym=     1a
 Ene= 6.72170266592731E-01
 Spin= Alpha
 Occup= 0.008089
  1      -0.431083661568
  2      -1.101249738225
  3       1.199761494319
  4      -0.000000000000
  5       0.000000000000
  6       0.439317867858
  7       0.000000000000
  8      -0.000000000000
  9      -0.438921709350
 10      -0.022511710512
 11       0.000000000000
 12       0.000000000000
 13       0.000000000000
 14       0.000000000000
 15       0.333147866058
 16       0.822096031348
 17      -0.901729249501
 18      -0.000000000000
 19       0.000000000000
 20       0.175937371117
 21       0.000000000000
 22      -0.000000000000
 23      -0.194066378616
 24      -0.046009114449
 25      -0.000000000000
 26      -0.000000000000
 27       0.000000000000
 28      -0.000000000000
 Sym=     1a
 Ene= 7.26388397069629E-01
 Spin= Alpha
 Occup= 0.006842
  1      -0.000000000000
  2      -0.000000000000
  3       0.000000000000
  4       0.189573920462
  5      -0.378420700310
  6      -0.000000000000
  7      -0.020711312995
  8       0.041343184489
  9       0.000000000000
 10      -0.000000000000
 11      -0.250048225597
 12       0.499137351862
 13       0.000000000000
 14      -0.000000000000
 15       0.000000000000
 16       0.000000000000
 17      -0.000000000000
 18       0.334133413207
 19      -0.666985205108
 20      -0.000000000000
 21      -0.330853982153
 22       0.660438921775
 23      -0.000000000000
 24       0.000000000000
 25       0.004776997420
 26      -0.009535671914
 27       0.000000000000
 28      -0.000000000000
 Sym=     1a
 Ene= 1.01685116206195E+00
 Spin= Alpha
 Occup= 0.006842
  1      -0.000000000000
  2      -0.000000000000
  3      -0.000000000000
  4       0.378420700310
  5       0.189573920462
  6      -0.000000000000
  7      -0.041343184489
  8      -0.020711312995
  9      -0.000000000000
 10      -0.000000000000
 11      -0.499137351862
 12      -0.250048225597
 13       0.000000000000
 14      -0.000000000000
 15      -0.000000000000
 16      -0.000000000000
 17       0.000000000000
 18       0.666985205108
 19       0.334133413207
 20       0.000000000000
 21      -0.660438921775
 22      -0.330853982154
 23      -0.000000000000
 24      -0.000000000000
 25       0.009535671914
 26       0.004776997420
 27       0.000000000000
 28      -0.000000000000
 Sym=     1a
 Ene= 1.06145263895231E+00
 Spin= Alpha
 Occup= 0.005973
  1       0.189790013337
  2       0.402915162727
  3       0.222822759772
  4       0.000000000000
  5       0.000000000000
  6       0.378536152674
  7      -0.000000000000
  8      -0.000000000000
  9      -0.257391566798
 10       0.351745859862
 11       0.000000000000
 12       0.000000000000
 13      -0.000000000000
 14      -0.000000000000
 15       0.066118764062
 16       0.140102513417
 17      -0.578132219766
 18       0.000000000000
 19       0.000000000000
 20      -0.122968956005
 21      -0.000000000000
 22      -0.000000000000
 23       0.822671674134
 24       0.579179069254
 25      -0.000000000000
 26       0.000000000000
 27      -0.000000000000
 28      -0.000000000000
 Sym=     1a
 Ene= 1.22461860680718E+00
 Spin= Alpha
 Occup= 0.005808
  1       0.000000000000
  2       0.000000000000
  3      -0.000000000000
  4       0.276485416975
  5      -0.004825728825
  6      -0.000000000000
  7      -0.204216124664
  8       0.003564353050
  9       0.000000000000
 10      -0.000000000000
 11       0.514552314815
 12      -0.008980907438
 13      -0.000000000000
 14      -0.000000000000
 15       0.000000000000
 16       0.000000000000
 17      -0.000000000000
 18       0.180075077670
 19      -0.003142999376
 20      -0.000000000000
 21      -0.539332427220
 22       0.009413415249
 23       0.000000000000
 24       0.000000000000
 25      -0.582224117488
 26       0.010162039420
 27      -0.000000000000
 28      -0.000000000000
 Sym=     1a
 Ene= 1.22461860680719E+00
 Spin= Alpha
 Occup= 0.005808
  1      -0.000000000000
  2      -0.000000000000
  3       0.000000000000
  4      -0.004825728825
  5      -0.276485416975
  6      -0.000000000000
  7       0.003564353050
  8       0.204216124664
  9       0.000000000000
 10      -0.000000000000
 11      -0.008980907438
 12      -0.514552314815
 13       0.000000000000
 14       0.000000000000
 15       0.000000000000
 16       0.000000000000
 17      -0.000000000000
 18      -0.003142999376
 19      -0.180075077670
 20      -0.000000000000
 21       0.009413415249
 22       0.539332427220
 23      -0.000000000000
 24       0.000000000000
 25       0.010162039420
 26       0.582224117487
 27      -0.000000000000
 28      -0.000000000000
 Sym=     1a
 Ene= 1.34421514511338E+00
 Spin= Alpha
 Occup= 0.004522
  1      -0.000000000000
  2      -0.000000000000
  3       0.000000000000
  4      -0.000000000000
  5       0.000000000000
  6       0.000000000000
  7       0.000000000000
  8      -0.000000000000
  9       0.000000000000
 10      -0.000000000000
 11      -0.000000000000
 12      -0.000000000000
 13      -0.340572539356
 14      -0.444020505419
 15       0.000000000000
 16       0.000000000000
 17      -0.000000000000
 18      -0.000000000000
 19       0.000000000000
 20       0.000000000000
 21       0.000000000000
 22       0.000000000000
 23      -0.000000000000
 24      -0.000000000000
 25      -0.000000000000
 26      -0.000000000000
 27      -0.458818734391
 28      -0.598183654870
 Sym=     1a
 Ene= 1.34421514511339E+00
 Spin= Alpha
 Occup= 0.004522
  1      -0.000000000000
  2      -0.000000000000
  3       0.000000000000
  4       0.000000000000
  5       0.000000000000
  6      -0.000000000000
  7       0.000000000000
  8      -0.000000000000
  9       0.000000000000
 10      -0.000000000000
 11      -0.000000000000
 12       0.000000000000
 13      -0.444020505419
 14       0.340572539356
 15       0.000000000000
 16       0.000000000000
 17      -0.000000000000
 18       0.000000000000
 19      -0.000000000000
 20      -0.000000000000
 21      -0.000000000000
 22      -0.000000000000
 23      -0.000000000000
 24       0.000000000000
 25       0.000000000000
 26       0.000000000000
 27      -0.598183654870
 28       0.458818734391
 Sym=     1a
 Ene= 1.55740117132609E+00
 Spin= Alpha
 Occup= 0.001999
  1       0.006777799843
  2       0.117045138927
  3      -0.038687201872
  4       0.000000000000
  5      -0.000000000000
  6       0.471395077788
  7      -0.000000000000
  8       0.000000000000
  9      -0.119592954229
 10       1.190392255080
 11       0.000000000000
 12      -0.000000000000
 13      -0.000000000000
 14      -0.000000000000
 15      -0.489835752086
 16      -1.038732053368
 17       0.421289075983
 18       0.000000000000
 19      -0.000000000000
 20       0.672901510501
 21      -0.000000000000
 22       0.000000000000
 23      -0.341422523791
 24      -0.423024898909
 25       0.000000000000
 26       0.000000000000
 27      -0.000000000000
 28       0.000000000000
 Sym=     1a
 Ene= 1.55740117132609E+00
 Spin= Alpha
 Occup= 0.001764
  1      -0.000000000000
  2      -0.000000000000
  3       0.000000000000
  4      -0.000000000000
  5       0.000000000000
  6      -0.000000000000
  7      -0.000000000000
  8       0.000000000000
  9       0.000000000000
 10      -0.000000000000
 11      -0.000000000000
 12       0.000000000000
 13       0.630327895148
 14      -0.556481247001
 15       0.000000000000
 16       0.000000000000
 17      -0.000000000000
 18      -0.000000000000
 19       0.000000000000
 20      -0.000000000000
 21       0.000000000000
 22      -0.000000000000
 23      -0.000000000000
 24       0.000000000000
 25      -0.000000000000
 26       0.000000000000
 27      -0.503883264316
 28       0.444850353963
 Sym=     1a
 Ene= 1.93895567428138E+00
 Spin= Alpha
 Occup= 0.001764
  1       0.000000000000
  2       0.000000000000
  3      -0.000000000000
  4      -0.000000000000
  5       0.000000000001
  6       0.000000000000
  7       0.000000000000
  8      -0.000000000001
  9      -0.000000000000
 10       0.000000000000
 11      -0.000000000000
 12       0.000000000001
 13       0.556481247001
 14       0.630327895148
 15      -0.000000000000
 16      -0.000000000000
 17       0.000000000000
 18       0.000000000000
 19      -0.000000000000
 20       0.000000000000
 21       0.000000000000
 22      -0.000000000000
 23      -0.000000000000
 24      -0.000000000000
 25      -0.000000000000
 26       0.000000000001
 27      -0.444850353963
 28      -0.503883264316
 Sym=     1a
 Ene= 2.34061288162614E+00
 Spin= Alpha
 Occup= 0.001437
  1      -0.000000000000
  2      -0.000000000000
  3      -0.000000000000
  4      -0.702773917272
  5      -0.201246700470
  6       0.000000000000
  7       0.516475183780
  8       0.147898099311
  9      -0.000000000000
 10       0.000000000000
 11      -0.658781633404
 12      -0.188649047431
 13      -0.000000000000
 14      -0.000000000000
 15      -0.000000000000
 16      -0.000000000000
 17       0.000000000000
 18       0.080767919856
 19       0.023128743078
 20       0.000000000000
 21       0.207135445840
 22       0.059315412825
 23      -0.000000000000
 24      -0.000000000000
 25      -0.825114927502
 26      -0.236280335094
 27       0.000000000000
 28       0.000000000000
 Sym=     1a
 Ene= 2.93693523052879E+00
 Spin= Alpha
 Occup= 0.001437
  1      -0.000000000000
  2      -0.000000000000
  3      -0.000000000000
  4       0.201246700470
  5      -0.702773917272
  6      -0.000000000000
  7      -0.147898099312
  8       0.516475183780
  9       0.000000000000
 10      -0.000000000000
 11       0.188649047431
 12      -0.658781633403
 13       0.000000000001
 14       0.000000000001
 15       0.000000000000
 16       0.000000000000
 17       0.000000000000
 18      -0.023128743078
 19       0.080767919856
 20      -0.000000000000
 21      -0.059315412825
 22       0.207135445839
 23      -0.000000000000
 24       0.000000000000
 25       0.236280335094
 26      -0.825114927502
 27      -0.000000000001
 28      -0.000000000000
 Sym=     1a
 Ene= 2.93693523052880E+00
 Spin= Alpha
 Occup= 0.000860
  1      -0.686090822316
  2      -1.396926220488
  3       0.130887579451
  4      -0.000000000000
  5       0.000000000000
  6      -1.016834489963
  7       0.000000000000
  8      -0.000000000000
  9       0.476514261611
 10       0.127208451108
 11      -0.000000000000
 12       0.000000000000
 13       0.000000000000
 14      -0.000000000000
 15      -0.229852253870
 16      -0.418210581207
 17       0.933940874400
 18       0.000000000000
 19       0.000000000000
 20       0.124549224487
 21      -0.000000000000
 22      -0.000000000000
 23      -1.325870802858
 24       0.932726577030
 25      -0.000000000000
 26       0.000000000000
 27       0.000000000000
 28      -0.000000000000
 Sym=     1a
 Ene= 3.42516135305538E+00
 Spin= Alpha
 Occup= 0.000513
  1       0.000000000000
  2       0.000000000000
  3       0.000000000000
  4       0.007795298995
  5      -0.326591121910
  6       0.000000000000
  7      -0.030818282529
  8       1.291159899409
  9       0.000000000000
 10       0.000000000000
 11      -0.018037357870
 12       0.755691468236
 13      -0.000000000000
 14       0.000000000000
 15       0.000000000000
 16       0.000000000000
 17      -0.000000000001
 18      -0.006598549789
 19       0.276452228422
 20       0.000000000000
 21       0.029792676390
 22      -1.248191199987
 23       0.000000000000
 24      -0.000000000000
 25      -0.011049888290
 26       0.462945092387
 27       0.000000000000
 28      -0.000000000000
 Sym=     1a
 Ene= 3.42516135305539E+00
 Spin= Alpha
 Occup= 0.000513
  1       0.000000000000
  2       0.000000000000
  3      -0.000000000000
  4      -0.326591121910
  5      -0.007795298995
  6      -0.000000000000
  7       1.291159899409
  8       0.030818282529
  9      -0.000000000000
 10      -0.000000000000
 11       0.755691468236
 12       0.018037357870
 13       0.000000000000
 14      -0.000000000000
 15       0.000000000000
 16       0.000000000000
 17       0.000000000000
 18       0.276452228422
 19       0.006598549789
 20      -0.000000000000
 21      -1.248191199987
 22      -0.029792676390
 23      -0.000000000000
 24       0.000000000000
 25       0.462945092387
 26       0.011049888290
 27      -0.000000000000
 28      -0.000000000000
 Sym=     1a
 Ene= 3.87015665590914E+00
 Spin= Alpha
 Occup= 0.000184
  1      -0.258881219162
  2      -0.523301476871
  3      -2.843627699081
  4       0.000000000000
  5      -0.000000000000
  6      -0.704197383084
  7      -0.000000000000
  8       0.000000000000
  9      -2.277176421755
 10      -0.827801554124
 11      -0.000000000000
 12       0.000000000000
 13      -0.000000000000
 14       0.000000000000
 15      -0.588066677122
 16      -1.130840435833
 17       4.771067772165
 18      -0.000000000000
 19       0.000000000000
 20      -0.208781904701
 21       0.000000000000
 22      -0.000000000000
 23      -1.609842205026
 24       0.387329571257
 25      -0.000000000000
 26       0.000000000000
 27      -0.000000000000
 28       0.000000000000
