[Molden Format]
[Title]
 Molden file created by orca_2mkl for BaseName=CAS_10_8

[Atoms] AU
C    1   6          0.0000000000         0.0000000000         0.0000000000
O    2   8          0.0000000000         0.0000000000         2.1342566957
[GTO]
  1 0
s   8 1.0
     6665.0000000000         0.3635842998
     1000.0000000000         0.6749857928
      228.0000000000         1.1316199410
       64.7100000000         1.6530092121
       21.0600000000         1.9238206437
        7.4950000000         1.4472783162
        2.7970000000         0.4391631292
        0.5215000000         0.0066458037
s   8 1.0
     6665.0000000000        -0.1541797483
     1000.0000000000        -0.2937853735
      228.0000000000        -0.4808958038
       64.7100000000        -0.7614343161
       21.0600000000        -0.9001038923
        7.4950000000        -0.9726113518
        2.7970000000        -0.3940419460
        0.5215000000         0.4783944249
s   1 1.0
        0.1596000000         0.1799636353
p   3 1.0
        9.4390000000         1.3437371095
        2.0020000000         1.0631680879
        0.5456000000         0.5082318338
p   1 1.0
        0.1517000000         0.1349497436
d   1 1.0
        0.5500000000         1.0013935509

  2 0
s   8 1.0
    11720.0000000000         0.5697017158
     1759.0000000000         1.0583521000
      400.8000000000         1.7762810558
      113.7000000000         2.5994118899
       37.0300000000         3.0268459958
       13.2700000000         2.2223943344
        5.0250000000         0.6477954310
        1.0130000000         0.0111186960
s   8 1.0
    11720.0000000000        -0.2524342625
     1759.0000000000        -0.4804910908
      400.8000000000        -0.7862996613
      113.7000000000        -1.2541699039
       37.0300000000        -1.4912179216
       13.2700000000        -1.6108317779
        5.0250000000        -0.5497983753
        1.0130000000         0.7882822080
s   1 1.0
        0.3023000000         0.2905619240
p   3 1.0
       17.7000000000         3.2436193456
        3.8540000000         2.5672796523
        1.0460000000         1.1176693232
p   1 1.0
        0.2753000000         0.2842482844
d   1 1.0
        1.1850000000         3.8368709885

[5D]
[7F]
[9G]
[MO]
 Sym=     1a
 Ene= -2.06150842195517E+01
 Spin= Alpha
 Occup= 2.000000
  1      -0.001675086165
  2      -0.003043003471
  3      -0.005504744091
  4      -0.000000000000
  5      -0.000000000000
  6       0.002990770830
  7       0.000000000000
  8      -0.000000000000
  9       0.002141712025
 10      -0.001135380079
 11      -0.000000000000
 12      -0.000000000000
 13       0.000000000001
 14      -0.000000000000
 15       0.999981265572
 16      -0.022338214591
 17      -0.031665158338
 18       0.000000000000
 19       0.000000000000
 20      -0.016407983279
 21       0.000000000000
 22       0.000000000000
 23      -0.008854131336
 24       0.000618662366
 25      -0.000000000000
 26      -0.000000000000
 27      -0.000000000000
 28      -0.000000000000
 Sym=     1a
 Ene= -1.13004614563194E+01
 Spin= Alpha
 Occup= 2.000000
  1      -1.001286130747
  2       0.012441705951
  3       0.023820096934
  4      -0.000000000000
  5       0.000000000000
  6      -0.015336622527
  7      -0.000000000000
  8       0.000000000000
  9      -0.006522125482
 10      -0.002304548262
 11      -0.000000000000
 12       0.000000000000
 13       0.000000000001
 14      -0.000000000001
 15      -0.001289987167
 16       0.006295437109
 17       0.010031377343
 18      -0.000000000000
 19       0.000000000000
 20       0.005528120859
 21       0.000000000000
 22      -0.000000000000
 23       0.001892531667
 24      -0.000078751741
 25      -0.000000000000
 26      -0.000000000000
 27       0.000000000001
 28      -0.000000000001
 Sym=     1a
 Ene= -1.29860788668828E+00
 Spin= Alpha
 Occup= 1.997840
  1      -0.007934349212
  2      -0.111578063424
  3      -0.177042158430
  4       0.000000000000
  5       0.000000000000
  6       0.044784973828
  7       0.000000000000
  8       0.000000000000
  9       0.025241210346
 10      -0.013797845151
 11       0.000000000000
 12       0.000000000000
 13      -0.000000000001
 14       0.000000000000
 15      -0.048927297577
 16      -0.447083850742
 17      -0.469698981184
 18       0.000000000000
 19       0.000000000000
 20      -0.212659601569
 21       0.000000000000
 22       0.000000000000
 23      -0.161682922623
 24       0.000671568575
 25      -0.000000000000
 26      -0.000000000000
 27      -0.000000000018
 28       0.000000000012
 Sym=     1a
 Ene= -6.32671136527082E-01
 Spin= Alpha
 Occup= 1.990792
  1      -0.025803375496
  2      -0.418539148605
  3      -0.571401904777
  4      -0.000000000000
  5      -0.000000000000
  6       0.259424869731
  7       0.000000000000
  8      -0.000000000000
  9       0.147206400873
 10       0.016381988366
 11      -0.000000000000
 12      -0.000000000000
 13      -0.000000000073
 14       0.000000000036
 15       0.008854620576
 16       0.149263480030
 17       0.228190168750
 18      -0.000000000000
 19      -0.000000000000
 20       0.101218769101
 21      -0.000000000000
 22      -0.000000000000
 23       0.035364126416
 24      -0.003929017807
 25       0.000000000000
 26       0.000000000000
 27      -0.000000000038
 28       0.000000000021
 Sym=     1a
 Ene= -9.95373543754343E-01
 Spin= Alpha
 Occup= 1.981741
  1      -0.004847053899
  2       0.165649793323
  3      -0.164406797478
  4       0.000000000000
  5       0.000000000000
  6       0.431859028377
  7      -0.000000000000
  8       0.000000000000
  9       0.064508630856
 10       0.051774775478
 11       0.000000000000
 12      -0.000000000000
 13       0.000000000144
 14      -0.000000000079
 15      -0.010286922119
 16       0.132187679135
 17      -0.020914565076
 18       0.000000000000
 19       0.000000000000
 20      -0.536627857214
 21       0.000000000000
 22       0.000000000000
 23      -0.247747109805
 24       0.032422193512
 25      -0.000000000000
 26      -0.000000000000
 27      -0.000000000001
 28      -0.000000000000
 Sym=     1a
 Ene= -6.25896497806339E-01
 Spin= Alpha
 Occup= 1.955050
  1       0.000000000000
  2       0.000000000000
  3       0.000000000000
  4      -0.067667581993
  5      -0.313016234316
  6       0.000000000000
  7      -0.030055258815
  8      -0.139029419195
  9      -0.000000000000
 10       0.000000000000
 11      -0.012706184718
 12      -0.058776178198
 13       0.000000000000
 14      -0.000000000000
 15      -0.000000000000
 16      -0.000000000000
 17      -0.000000000000
 18      -0.116258143256
 19      -0.537786048846
 20      -0.000000000000
 21      -0.069877680031
 22      -0.323239653250
 23      -0.000000000000
 24      -0.000000000000
 25       0.005994067159
 26       0.027727312964
 27       0.000000000000
 28      -0.000000000000
 Sym=     1a
 Ene= -6.25896497995518E-01
 Spin= Alpha
 Occup= 1.955050
  1      -0.000000000000
  2      -0.000000000000
  3      -0.000000000000
  4       0.313016234017
  5      -0.067667581632
  6      -0.000000000000
  7       0.139029418714
  8      -0.030055258472
  9      -0.000000000000
 10      -0.000000000000
 11       0.058776178432
 12      -0.012706184786
 13       0.000000000000
 14      -0.000000000000
 15       0.000000000000
 16       0.000000000000
 17       0.000000000000
 18       0.537786049281
 19      -0.116258143597
 20       0.000000000000
 21       0.323239653289
 22      -0.069877680174
 23       0.000000000000
 24       0.000000000000
 25      -0.027727312912
 26       0.005994067137
 27       0.000000000000
 28       0.000000000000
 Sym=     1a
 Ene= 3.57284179763387E-01
 Spin= Alpha
 Occup= 0.049929
  1      -0.000000000000
  2      -0.000000000000
  3      -0.000000000000
  4      -0.641199430115
  5       0.136375500633
  6      -0.000000000000
  7      -0.257653265163
  8       0.054799790330
  9      -0.000000000000
 10      -0.000000000000
 11      -0.067410484843
 12       0.014337409164
 13      -0.000000000000
 14      -0.000000000000
 15       0.000000000000
 16       0.000000000000
 17      -0.000000000000
 18       0.693760773362
 19      -0.147554684417
 20       0.000000000000
 21      -0.004972346469
 22       0.001057555161
 23      -0.000000000000
 24       0.000000000000
 25       0.019678135775
 26      -0.004185314528
 27      -0.000000000000
 28       0.000000000000
 Sym=     1a
 Ene= 3.57284179223476E-01
 Spin= Alpha
 Occup= 0.049929
  1       0.000000000000
  2       0.000000000000
  3      -0.000000000000
  4      -0.136375500443
  5      -0.641199429537
  6       0.000000000000
  7      -0.054799790121
  8      -0.257653264200
  9      -0.000000000000
 10      -0.000000000000
 11      -0.014337408057
 12      -0.067410481769
 13       0.000000000000
 14      -0.000000000000
 15       0.000000000000
 16       0.000000000000
 17      -0.000000000000
 18       0.147554684513
 19       0.693760773794
 20       0.000000000000
 21      -0.001057555231
 22      -0.004972348339
 23      -0.000000000000
 24       0.000000000000
 25       0.004185314702
 26       0.019678136606
 27      -0.000000000000
 28       0.000000000000
 Sym=     1a
 Ene= 1.18196781030118E+00
 Spin= Alpha
 Occup= 0.019668
  1       0.163685567273
  2       0.580002659104
  3       0.073522214726
  4      -0.000000000000
  5      -0.000000000000
  6       0.892943493096
  7       0.000000000000
  8       0.000000000000
  9       0.139504320613
 10       0.061858897709
 11      -0.000000000000
 12       0.000000000000
 13       0.000000009613
 14      -0.000000005348
 15      -0.161252709370
 16      -0.520642664088
 17      -0.280099182123
 18      -0.000000000000
 19      -0.000000000000
 20       0.874673314713
 21       0.000000000000
 22       0.000000000000
 23      -0.038643046358
 24       0.028622106083
 25       0.000000000000
 26       0.000000000000
 27      -0.000000001054
 28       0.000000000596
 Sym=     1a
 Ene= 4.57653122672691E-01
 Spin= Alpha
 Occup= 0.000000
  1      -0.133805385267
  2      -0.293383243660
  3       1.761783387641
  4      -0.000000000000
  5       0.000000000000
  6      -0.177743767712
  7      -0.000000000000
  8      -0.000000000000
  9       1.829264382979
 10       0.170092137598
 11       0.000000000000
 12       0.000000000000
 13      -0.000000002295
 14       0.000000001279
 15       0.080797102959
 16       0.008774446468
 17      -1.910540081166
 18       0.000000000000
 19       0.000000000000
 20      -0.161453243967
 21       0.000000000000
 22       0.000000000000
 23       0.614854914937
 24      -0.070418954965
 25      -0.000000000000
 26      -0.000000000000
 27      -0.000000000048
 28       0.000000000026
 Sym=     1a
 Ene= 6.42137368234352E-01
 Spin= Alpha
 Occup= 0.000000
  1      -0.000000000000
  2      -0.000000000000
  3       0.000000000000
  4       0.816429678331
  5      -0.231608498704
  6       0.000000000000
  7      -1.202496071044
  8       0.341129575196
  9       0.000000000000
 10       0.000000000000
 11       0.034531189390
 12      -0.009795966287
 13       0.000000000000
 14      -0.000000000000
 15      -0.000000000000
 16      -0.000000000000
 17      -0.000000000000
 18      -0.001346153061
 19       0.000381881784
 20      -0.000000000000
 21       0.282021809717
 22      -0.080005234297
 23       0.000000000000
 24      -0.000000000000
 25      -0.043888146417
 26       0.012450390475
 27       0.000000000000
 28      -0.000000000000
 Sym=     1a
 Ene= 6.42137368333411E-01
 Spin= Alpha
 Occup= 0.000000
  1      -0.000000000000
  2      -0.000000000000
  3       0.000000000000
  4      -0.231608498859
  5      -0.816429678646
  6      -0.000000000000
  7       0.341129575123
  8       1.202496071096
  9       0.000000000000
 10       0.000000000000
 11      -0.009795966152
 12      -0.034531188885
 13      -0.000000000000
 14      -0.000000000000
 15       0.000000000000
 16       0.000000000000
 17      -0.000000000000
 18       0.000381881648
 19       0.001346153022
 20      -0.000000000000
 21      -0.080005234186
 22      -0.282021810051
 23       0.000000000000
 24      -0.000000000000
 25       0.012450390483
 26       0.043888146456
 27      -0.000000000000
 28      -0.000000000000
 Sym=     1a
 Ene= 7.47331615959808E-01
 Spin= Alpha
 Occup= 0.000000
  1       0.476477141027
  2       1.218409035002
  3      -1.603688269387
  4       0.000000000000
  5      -0.000000000000
  6      -0.639582559415
  7      -0.000000000000
  8      -0.000000000000
  9       0.351278433536
 10      -0.021280262780
 11      -0.000000000000
 12      -0.000000000000
 13      -0.000000000060
 14       0.000000000034
 15       0.007003781702
 16       0.060465724923
 17       0.373021270571
 18       0.000000000000
 19      -0.000000000000
 20       0.100373095284
 21      -0.000000000000
 22       0.000000000000
 23      -0.354465296928
 24       0.006115416938
 25      -0.000000000000
 26       0.000000000000
 27       0.000000000000
 28       0.000000000000
 Sym=     1a
 Ene= 1.02872639761787E+00
 Spin= Alpha
 Occup= 0.000000
  1      -0.501727927534
  2      -1.054371397315
  3      -0.308744288187
  4       0.000000000000
  5      -0.000000000000
  6      -0.556380227779
  7       0.000000000000
  8      -0.000000000000
  9      -0.120493836755
 10      -0.199004964663
 11       0.000000000000
 12      -0.000000000000
 13       0.000000000532
 14      -0.000000000296
 15       0.022569470363
 16       0.194438827628
 17       0.775246382934
 18       0.000000000000
 19      -0.000000000000
 20       0.451872806656
 21      -0.000000000000
 22       0.000000000000
 23      -1.626577010250
 24      -0.050379768710
 25      -0.000000000000
 26       0.000000000000
 27       0.000000000029
 28      -0.000000000016
 Sym=     1a
 Ene= 1.07521534255097E+00
 Spin= Alpha
 Occup= 0.000000
  1       0.000000000000
  2      -0.000000000000
  3       0.000000000000
  4      -0.004961846602
  5      -0.297771033463
  6       0.000000000000
  7      -0.009152489747
  8      -0.549260752654
  9      -0.000000000000
 10       0.000000000000
 11      -0.002456623933
 12      -0.147427463412
 13      -0.000000000000
 14      -0.000000000000
 15      -0.000000000000
 16      -0.000000000000
 17       0.000000000000
 18      -0.012332016637
 19      -0.740071078278
 20      -0.000000000000
 21       0.023343804622
 22       1.400912203463
 23       0.000000000000
 24      -0.000000000000
 25       0.000518382447
 26       0.031109344251
 27       0.000000000000
 28      -0.000000000000
 Sym=     1a
 Ene= 1.07521534299073E+00
 Spin= Alpha
 Occup= 0.000000
  1       0.000000000000
  2       0.000000000000
  3       0.000000000000
  4       0.297771033190
  5      -0.004961846895
  6       0.000000000000
  7       0.549260752173
  8      -0.009152489298
  9       0.000000000000
 10       0.000000000000
 11       0.147427462005
 12      -0.002456622939
 13       0.000000000000
 14      -0.000000000000
 15       0.000000000000
 16       0.000000000000
 17      -0.000000000000
 18       0.740071078962
 19      -0.012332016878
 20      -0.000000000000
 21      -1.400912202908
 22       0.023343804130
 23       0.000000000000
 24       0.000000000000
 25      -0.031109344253
 26       0.000518382434
 27       0.000000000000
 28       0.000000000000
 Sym=     1a
 Ene= 1.36151472277670E+00
 Spin= Alpha
 Occup= 0.000000
  1      -0.000000001119
  2      -0.000000003416
  3       0.000000004262
  4      -0.000000000000
  5       0.000000000000
  6      -0.000000004140
  7       0.000000000000
  8       0.000000000000
  9       0.000000003678
 10       0.000000004915
 11       0.000000000000
 12       0.000000000000
 13       0.064349783191
 14      -0.979736651689
 15      -0.000000000245
 16       0.000000000234
 17      -0.000000003267
 18      -0.000000000000
 19       0.000000000000
 20      -0.000000003188
 21      -0.000000000000
 22      -0.000000000000
 23       0.000000001219
 24      -0.000000000859
 25       0.000000000000
 26      -0.000000000000
 27       0.006330805468
 28      -0.096387618359
 Sym=     1a
 Ene= 1.36151472277671E+00
 Spin= Alpha
 Occup= 0.000000
  1       0.000000001736
  2       0.000000005300
  3      -0.000000006593
  4       0.000000000000
  5       0.000000000000
  6       0.000000006411
  7      -0.000000000000
  8      -0.000000000000
  9      -0.000000005692
 10      -0.000000007627
 11       0.000000000000
 12      -0.000000000000
 13      -0.979736651689
 14      -0.064349783191
 15       0.000000000387
 16      -0.000000000347
 17       0.000000005040
 18       0.000000000000
 19       0.000000000000
 20       0.000000004933
 21      -0.000000000000
 22      -0.000000000000
 23      -0.000000001881
 24       0.000000001332
 25      -0.000000000000
 26       0.000000000000
 27      -0.096387618359
 28      -0.006330805468
 Sym=     1a
 Ene= 1.54712812693115E+00
 Spin= Alpha
 Occup= 0.000000
  1       0.000000000000
  2       0.000000000000
  3      -0.000000000000
  4      -0.156928817344
  5       0.048723429537
  6       0.000000000000
  7       0.289773079608
  8      -0.089969062708
  9      -0.000000000000
 10       0.000000000000
 11       1.022348556036
 12      -0.317419904925
 13       0.000000000000
 14       0.000000000000
 15      -0.000000000000
 16      -0.000000000000
 17      -0.000000000000
 18      -0.179495782844
 19       0.055730053723
 20       0.000000000000
 21      -0.399858711975
 22       0.124148567374
 23      -0.000000000000
 24      -0.000000000000
 25      -0.100009949674
 26       0.031051200165
 27       0.000000000000
 28      -0.000000000000
 Sym=     1a
 Ene= 1.54712812758360E+00
 Spin= Alpha
 Occup= 0.000000
  1       0.000000000000
  2       0.000000000000
  3      -0.000000000000
  4       0.048723429125
  5       0.156928815881
  6      -0.000000000000
  7      -0.089969062424
  8      -0.289773078848
  9      -0.000000000000
 10      -0.000000000000
 11      -0.317419904887
 12      -1.022348555944
 13       0.000000000000
 14      -0.000000000000
 15      -0.000000000000
 16      -0.000000000000
 17       0.000000000000
 18       0.055730054535
 19       0.179495785310
 20      -0.000000000000
 21       0.124148566551
 22       0.399858709737
 23       0.000000000000
 24      -0.000000000000
 25       0.031051200196
 26       0.100009949817
 27       0.000000000000
 28       0.000000000000
 Sym=     1a
 Ene= 1.92722047901614E+00
 Spin= Alpha
 Occup= 0.000000
  1       0.127652931821
  2       0.264130450422
  3       2.026988344343
  4       0.000000000000
  5       0.000000000000
  6       0.513890897045
  7      -0.000000000000
  8      -0.000000000000
  9       1.409392360504
 10       0.810459693607
 11      -0.000000000000
 12      -0.000000000000
 13      -0.000000001620
 14       0.000000000902
 15       0.649729433761
 16       1.428380547035
 17      -3.937243391315
 18      -0.000000000000
 19      -0.000000000000
 20       0.410530785624
 21       0.000000000000
 22       0.000000000000
 23       0.872405926237
 24       0.117507792675
 25       0.000000000000
 26       0.000000000000
 27      -0.000000000356
 28       0.000000000197
 Sym=     1a
 Ene= 2.15334140080985E+00
 Spin= Alpha
 Occup= 0.000000
  1       0.138136518304
  2       0.185242175553
  3       0.072820327562
  4      -0.000000000000
  5       0.000000000000
  6      -0.081883437477
  7      -0.000000000000
  8      -0.000000000000
  9      -0.057933788413
 10      -1.171348688273
 11      -0.000000000000
 12       0.000000000000
 13       0.000000005125
 14      -0.000000002843
 15       0.602920381536
 16       1.285890888363
 17      -0.848372692432
 18      -0.000000000000
 19      -0.000000000000
 20      -0.496999869306
 21       0.000000000000
 22       0.000000000000
 23       0.502320628507
 24       0.102581305764
 25      -0.000000000000
 26       0.000000000000
 27       0.000000001728
 28      -0.000000000963
 Sym=     1a
 Ene= 2.92244564578533E+00
 Spin= Alpha
 Occup= 0.000000
  1      -0.000000000014
  2      -0.000000000326
  3       0.000000000070
  4       0.000000000000
  5      -0.000000000000
  6      -0.000000000853
  7      -0.000000000000
  8      -0.000000000000
  9      -0.000000000080
 10      -0.000000000777
 11      -0.000000000000
 12      -0.000000000000
 13      -0.010990805219
 14      -0.236607054845
 15       0.000000000515
 16       0.000000001244
 17      -0.000000000365
 18      -0.000000000000
 19      -0.000000000000
 20      -0.000000001198
 21       0.000000000000
 22       0.000000000000
 23       0.000000000513
 24      -0.000000000169
 25      -0.000000000000
 26      -0.000000000000
 27       0.046651534714
 28       1.004301488448
 Sym=     1a
 Ene= 2.92244564578534E+00
 Spin= Alpha
 Occup= 0.000000
  1      -0.000000000032
  2      -0.000000000661
  3       0.000000000122
  4      -0.000000000000
  5       0.000000000000
  6      -0.000000001712
  7      -0.000000000000
  8       0.000000000000
  9      -0.000000000170
 10      -0.000000001563
 11      -0.000000000000
 12       0.000000000000
 13       0.236607054845
 14      -0.010990805219
 15       0.000000001025
 16       0.000000002475
 17      -0.000000000696
 18       0.000000000000
 19      -0.000000000000
 20      -0.000000002393
 21       0.000000000000
 22      -0.000000000000
 23       0.000000001011
 24      -0.000000000326
 25      -0.000000000000
 26       0.000000000000
 27      -1.004301488448
 28       0.046651534714
 Sym=     1a
 Ene= 3.41606703745969E+00
 Spin= Alpha
 Occup= 0.000000
  1       0.000000000000
  2       0.000000000000
  3       0.000000000000
  4       0.294396203455
  5      -0.033701295464
  6       0.000000000000
  7       0.212100478004
  8      -0.024280413762
  9      -0.000000000000
 10      -0.000000000000
 11       0.662309229532
 12      -0.075818511504
 13       0.000000000000
 14      -0.000000000000
 15       0.000000000000
 16       0.000000000000
 17      -0.000000000000
 18      -0.021070215710
 19       0.002412027796
 20      -0.000000000000
 21      -0.465027484262
 22       0.053234488589
 23       0.000000000000
 24      -0.000000000000
 25       1.122997385723
 26      -0.128556251099
 27      -0.000000000000
 28       0.000000000000
 Sym=     1a
 Ene= 3.41606703747325E+00
 Spin= Alpha
 Occup= 0.000000
  1      -0.000000000000
  2      -0.000000000000
  3       0.000000000000
  4      -0.033701295694
  5      -0.294396204095
  6      -0.000000000000
  7      -0.024280413811
  8      -0.212100478141
  9       0.000000000000
 10       0.000000000000
 11      -0.075818511566
 12      -0.662309229686
 13      -0.000000000000
 14       0.000000000000
 15       0.000000000000
 16       0.000000000000
 17      -0.000000000000
 18       0.002412028070
 19       0.021070216465
 20       0.000000000000
 21       0.053234488518
 22       0.465027484075
 23       0.000000000000
 24       0.000000000000
 25      -0.128556251088
 26      -1.122997385694
 27      -0.000000000000
 28      -0.000000000000
 Sym=     1a
 Ene= 3.85526538429135E+00
 Spin= Alpha
 Occup= 0.000000
  1       0.548110436549
  2       1.122268888144
  3       0.833601829713
  4      -0.000000000000
  5      -0.000000000000
  6       1.043163474231
  7      -0.000000000000
  8      -0.000000000000
  9       0.449390371224
 10       0.389149147761
 11      -0.000000000000
 12      -0.000000000000
 13      -0.000000000558
 14       0.000000000312
 15       0.277206512660
 16       0.515244986162
 17      -2.179437273438
 18      -0.000000000000
 19      -0.000000000000
 20       0.224396011008
 21       0.000000000000
 22       0.000000000000
 23       1.168952839678
 24      -1.228288923402
 25      -0.000000000000
 26      -0.000000000000
 27       0.000000000238
 28      -0.000000000139
