[Molden Format]
made by pyscf v[2.3.0]
[Atoms] (AU)
C   1   6     0.00000000000000     0.00000000000000     0.00000000000000
O   2   8     0.00000000000000     0.00000000000000     2.13425668508378
[GTO]
1 0
 s    8 1.00
                  6665  0.00069158396281299
                  1000  0.0053257961529341
                   228   0.027060721042034
                 64.71    0.10165684614077
                 21.06     0.2745748236174
                 7.495    0.44829431892377
                 2.797    0.28490261071525
                0.5215   0.015194859206082
 s    8 1.00
                  6665  -0.00029326965268655
                  1000  -0.0023180354739745
                   228  -0.011499786038565
                 64.71  -0.046826727009787
                 21.06   -0.12846616875047
                 7.495   -0.30126627246289
                 2.797   -0.25563070233011
                0.5215      1.093793361012
 s    1 1.00
                0.1596                   1
 p    3 1.00
                 9.439   0.056979251590039
                 2.002    0.31320721150073
                0.5456    0.76037674173753
 p    1 1.00
                0.1517                   1
 d    1 1.00
                  0.55                   1

2 0
 s    8 1.00
                 11720  0.00070964594651845
                  1759  0.0054672722921914
                 400.8   0.027823118610189
                 113.7    0.10474773971146
                 37.03    0.28292084635691
                 13.27    0.44849523869833
                 5.025    0.27081688521277
                 1.013    0.01545029160744
 s    8 1.00
                 11720  -0.00031444341168873
                  1759  -0.0024821376810179
                 400.8  -0.012316355381583
                 113.7  -0.050538917343672
                 37.03   -0.13938490331632
                 13.27   -0.32507749481778
                 5.025   -0.22984830758785
                 1.013     1.0953793467883
 s    1 1.00
                0.3023                   1
 p    3 1.00
                  17.7   0.062679166281506
                 3.854    0.33353656587936
                 1.046    0.74123964163973
 p    1 1.00
                0.2753                   1
 d    1 1.00
                 1.185                   1

[5d]
[7f]
[9g]

[MO]
 Sym= A
 Ene=               0
 Spin= Alpha
 Occup=    2.00000
   1      -1.0013053505275
   2    -0.0020971116865271
   3    0.00061486378199492
   4    -7.9940330879109e-18
   5    3.5561312530331e-17
   6    -0.003833290503014
   7    3.3228278227088e-18
   8    7.2194819819833e-18
   9    -0.00095108612741492
  10    -0.001911549025041
  11    -1.4814071079089e-18
  12    5.2760865662942e-18
  13    1.9093826894704e-18
  14    -4.2944834446446e-19
  15    -0.00026755072709721
  16    -0.00066342778389627
  17    0.0039729951721321
  18    1.2726587529143e-19
  19    4.4057732655919e-17
  20    0.00031843387225355
  21    8.3337929491205e-19
  22    2.5898977412075e-17
  23    -0.0025246283352048
  24    -5.5900446587156e-05
  25    -7.5365266910721e-19
  26    -1.2877265240134e-18
  27    4.8619392101612e-19
  28    -6.7476612382907e-20
 Sym= A
 Ene=               0
 Spin= Alpha
 Occup=    2.00000
   1    0.0005539857702507
   2    3.3566126579228e-05
   3    -0.0018671443765094
   4    1.4163907952517e-15
   5    1.2052994457646e-15
   6    0.00028088143958704
   7    1.8387268042129e-16
   8    6.9032332365974e-16
   9    -0.0011724186446732
  10    0.00057500211371674
  11    1.9869353640087e-16
  12    4.4406877019152e-16
  13    -5.1766661064301e-17
  14    1.0239986244198e-16
  15      -1.0011709130557
  16    -0.0016335847877148
  17    0.0049190697950654
  18    1.8800487178418e-15
  19    2.1523328770219e-15
  20    0.0017642097766599
  21    1.1196261469966e-15
  22    1.2708193810363e-15
  23    -0.0012675571020045
  24    -0.00039862726246929
  25    -9.3342219549446e-17
  26    -1.1111951878888e-16
  27    -1.1889305096186e-18
  28    -1.4505854770128e-18
 Sym= A
 Ene=               0
 Spin= Alpha
 Occup=    1.98421
   1     0.018177110390578
   2     -0.16388011107516
   3     -0.11294271361704
   4    -7.0113534789538e-09
   5    -1.4196214806806e-08
   6     -0.12072696546219
   7    -1.0875845999396e-08
   8    -9.4223756158744e-10
   9    -0.0089976758530748
  10    -0.033273581090613
  11    -1.1131179514279e-09
  12    -3.484090864458e-09
  13    2.4948446506988e-08
  14    1.0548298375342e-08
  15    0.0056802839315895
  16     -0.46554320005298
  17     -0.41749627072396
  18    -1.4274613359352e-08
  19    -2.9814908528891e-09
  20    0.0054336985142127
  21    -5.378886389535e-09
  22    -3.219145438621e-09
  23    -0.062177346560736
  24    -0.010588317235453
  25    -3.4450563576306e-09
  26    2.9702065422259e-09
  27    -8.2478373144369e-09
  28    1.4411314690139e-08
 Sym= A
 Ene=               0
 Spin= Alpha
 Occup=    1.96851
   1    -0.0058755287765414
   2     -0.25129645574017
   3     0.024076495077245
   4    1.0926786837678e-08
   5    -2.9445115777417e-08
   6       -0.299270301204
   7    1.0739469892125e-08
   8    -1.2896527112791e-08
   9    -0.0045340447561302
  10    -0.032350848392384
  11    4.668286554275e-09
  12    -4.5859423866481e-09
  13    7.5651119332129e-10
  14    -4.3945694009482e-09
  15    0.0045048736428042
  16     0.093538111687991
  17      0.24809353655454
  18    6.0994806417766e-09
  19    -6.1991450919162e-08
  20      0.57459368342682
  21    -1.9649463823607e-09
  22    -3.8292882858783e-08
  23      0.29410462735817
  24    -0.030268805190829
  25    1.4861652121158e-09
  26    1.5579529806579e-09
  27    1.5771247676953e-09
  28    -9.4477661797599e-09
 Sym= A
 Ene=               0
 Spin= Alpha
 Occup=    1.94035
   1    0.0044766133744754
   2     -0.36109281230848
   3     -0.61474865697371
   4    -6.1014970484963e-07
   5    -8.7120870788716e-09
   6      0.38416089538572
   7    -2.8344717757797e-07
   8    -1.5605340524821e-08
   9      0.15614609100722
  10     0.032365558996914
  11    -1.0537451986552e-07
  12    -4.7955710663086e-09
  13    3.3425554178956e-08
  14    3.2165837918933e-08
  15    0.0026473387275749
  16      0.12617674528288
  17      0.15237130576465
  18    -1.0303068920152e-06
  19    -1.6787491688802e-09
  20     -0.10561703010238
  21    -6.2183488964403e-07
  22    8.5967720515083e-09
  23    -0.072636993016544
  24    0.0065422070842547
  25    5.1550124118978e-08
  26    2.4515854896615e-09
  27    -8.6657300322494e-09
  28    -1.8384522793801e-08
 Sym= A
 Ene=               0
 Spin= Alpha
 Occup=    1.93590
   1    -8.9165615520077e-09
   2    2.7481182125108e-07
   3    5.3533609807072e-07
   4     -0.14643213908322
   5      0.28289594249212
   6    -3.6795073516319e-07
   7     -0.06469823916828
   8      0.12499213840178
   9    -1.2568033598176e-07
  10    -2.4171053473123e-08
  11     -0.02690073409413
  12     0.051970187141586
  13    1.4204856684751e-09
  14    -8.880053902703e-10
  15    5.1783369863801e-11
  16    -9.3366541022339e-08
  17    -1.160031031555e-07
  18     -0.25329490976816
  19       0.4893468578575
  20    1.5572174981491e-07
  21     -0.15308293855226
  22      0.29574469125551
  23    7.9436448195441e-08
  24    -6.3684343466899e-09
  25     0.012758708270457
  26    -0.024648897098392
  27    -9.9969874345308e-10
  28    -3.6705644814773e-10
 Sym= A
 Ene=               0
 Spin= Alpha
 Occup=    1.93590
   1    7.919387605336e-09
   2    -6.2053238885166e-07
   3    -1.0282857198035e-06
   4      0.28289592455619
   5      0.14643215713936
   6    6.2357814591773e-07
   7      0.12499218411556
   8     0.064698246785326
   9    2.7916345256303e-07
  10    5.5237111185271e-08
  11     0.051970198488607
  12     0.026900726659391
  13    8.8204502192088e-10
  14    -1.3064052054568e-09
  15    5.8604375180772e-09
  16    2.0321846645327e-07
  17    2.3806506029009e-07
  18      0.48934680074457
  19      0.25329494840394
  20    -1.6256859237449e-07
  21      0.29574472451586
  22       0.1530828836212
  23    -1.102577453831e-07
  24    1.087015208512e-08
  25    -0.024648875010106
  26    -0.012758724398255
  27    -7.9673576847723e-11
  28    6.1985037392241e-11
 Sym= A
 Ene=               0
 Spin= Alpha
 Occup=    0.06724
   1    2.4309671457569e-08
   2    6.2701734564299e-08
   3    1.8931512622613e-08
   4     -0.68765184467814
   5    -0.072408912907093
   6    -6.2972493604007e-08
   7     -0.27761659287742
   8    -0.029233993164533
   9    9.9093506110792e-08
  10    1.1360692925593e-08
  11     0.026737958330297
  12    0.0028147404623162
  13    4.1444968514693e-08
  14    -1.3449759317164e-08
  15    1.1491071931227e-08
  16    2.1889697339446e-08
  17    -8.9931997710003e-08
  18      0.60814296174748
  19     0.064037263227909
  20    -2.0080417075373e-08
  21     0.083158845028912
  22    0.0087572367473491
  23    4.2960219801693e-08
  24    -6.4883246814856e-09
  25     0.036139995114302
  26    0.0038052296241259
  27    9.242497518411e-09
  28    -2.6499163925371e-10
 Sym= A
 Ene=               0
 Spin= Alpha
 Occup=    0.06724
   1    6.5159498841517e-08
   2    1.7581999429709e-07
   3    -5.1144250201533e-07
   4     0.072409912398911
   5     -0.68765177282329
   6    7.5310965156987e-08
   7     0.029231840790623
   8     -0.27761600478225
   9    -4.0177403952035e-07
  10    -9.7337054567599e-08
  11    -0.0028160704388262
  12     0.026737646366041
  13    1.216237559686e-09
  14    -1.1377971565825e-08
  15    -5.6182979780568e-08
  16    -1.0368469783234e-07
  17    5.5679285461372e-07
  18    -0.064037167349075
  19      0.60814380553868
  20    1.0926916424562e-07
  21    -0.008755932206901
  22     0.083157640185825
  23    -1.8089387726457e-07
  24    -2.8837991213288e-08
  25    -0.0038057530045759
  26     0.036139941744761
  27    5.4552902185871e-09
  28    -1.3418083145228e-08
 Sym= A
 Ene=               0
 Spin= Alpha
 Occup=    0.02350
   1     0.087768636376441
   2      0.38312951046566
   3      0.22149035857607
   4    -1.4522618825188e-08
   5    3.6710199166722e-08
   6      0.88342979905633
   7    6.7717999810874e-08
   8    -3.1719217179282e-10
   9       0.1026546450845
  10    -0.076577489309741
  11    7.9525117644436e-08
  12    -3.1062715303346e-08
  13    -1.1738191720065e-07
  14    4.9482520659629e-08
  15     -0.12073292823076
  16     -0.43493993653333
  17     -0.28525692145201
  18    9.0479088064006e-08
  19    -1.0023325827079e-07
  20       0.8015405547068
  21    -1.5934369260112e-07
  22    8.7540119299506e-08
  23    -0.037480947512584
  24     0.063213234125519
  25    -1.3718969843873e-09
  26    -2.8673085621399e-08
  27    -5.2611404829083e-07
  28    -1.855498709512e-07
 Sym= A
 Ene=               0
 Spin= Alpha
 Occup=    0.01234
   1     -0.32110834229358
   2     -0.83094762078253
   3       1.0528629138622
   4    3.3563685779266e-09
   5    -3.1160069957707e-07
   6      0.23204098693238
   7    2.177054828073e-07
   8    1.2090789992888e-07
   9     -0.03490546904272
  10    -0.073117750413652
  11    1.4816511760695e-07
  12    -1.7538660649374e-07
  13    6.3303408340936e-07
  14    1.1841126724854e-06
  15     -0.33260067392785
  16     -0.86696819853401
  17      0.56309034601094
  18    1.6850623064117e-07
  19    1.8701999586494e-09
  20       -0.495664483056
  21    -3.9806694701329e-07
  22    1.8768993580168e-07
  23      0.59338135568653
  24    -0.020139711194834
  25    -1.757160037357e-08
  26    -1.6751910867884e-07
  27    9.8725215172216e-07
  28    6.480209533048e-07
 Sym= A
 Ene=               0
 Spin= Alpha
 Occup=    0.00864
   1      0.41993139056353
   2       1.0699734001159
   3      -1.1542391458557
   4    4.8797102925429e-08
   5    -3.4625172235755e-08
   6     -0.43938276384338
   7    -5.2222229523462e-08
   8    -1.4262181953036e-07
   9      0.44913800230919
  10    0.0018662352616166
  11    -6.2731279014592e-07
  12    6.0843130865511e-07
  13    -8.290161541257e-07
  14    -3.3459703574295e-06
  15     -0.33661120110573
  16     -0.83548044509248
  17       0.9055091694686
  18    1.1195279622916e-07
  19    -3.8118519273109e-07
  20     -0.20450923070377
  21    1.9489125585878e-07
  22    2.0546759782456e-07
  23      0.22049226059711
  24     0.036939216154589
  25    1.8677511637676e-07
  26    -1.4722630332385e-07
  27    1.7982352318998e-06
  28    1.7254307895898e-07
 Sym= A
 Ene=               0
 Spin= Alpha
 Occup=    0.00749
   1    -7.1864307722289e-09
   2    4.206252006697e-08
   3    -2.761300202701e-07
   4     -0.44863297886767
   5     0.099601537024564
   6    -2.5034001275608e-07
   7     0.077590511097693
   8    -0.017222841833364
   9    3.3690953477033e-07
  10    -1.186968031387e-07
  11      0.40021224180727
  12    -0.088852562784251
  13    2.1022373235798e-07
  14    -3.1470355490649e-07
  15    -2.284385071436e-07
  16    -5.6454991488702e-07
  17    6.3261375744353e-07
  18     -0.77329848325784
  19      0.17168396051168
  20    -9.6448792586955e-09
  21      0.84036637397266
  22     -0.18657532835625
  23    -2.5089253862121e-07
  24    -2.5333509396289e-07
  25     0.055409823247387
  26    -0.012300184107066
  27    2.9009595422088e-07
  28    -1.661427621975e-07
 Sym= A
 Ene=               0
 Spin= Alpha
 Occup=    0.00749
   1    9.1962992576007e-08
   2    2.7639983048766e-07
   3    -4.1812777514567e-07
   4     0.099603593010191
   5      0.44862995862909
   6    -2.1482456430105e-07
   7    -0.017227850902356
   8    -0.077585656051752
   9    2.341335421935e-07
  10    3.7850216988681e-08
  11     -0.08885389868245
  12     -0.40021918275159
  13    -5.4028448943077e-07
  14    2.3959669659078e-07
  15    -2.2286350285449e-07
  16    -5.382987386246e-07
  17    5.6362886458169e-07
  18      0.17168284828542
  19      0.77329786477267
  20    -4.2633189662435e-08
  21     -0.18657182295115
  22     -0.84036338838516
  23    -4.1497503807767e-08
  24    2.6023945121174e-08
  25    -0.012302666698877
  26    -0.055404672803059
  27    -1.7814895319697e-07
  28    -5.3773373690676e-08
 Sym= A
 Ene=               0
 Spin= Alpha
 Occup=    0.00652
   1     -0.21581803635564
   2     -0.46081183470853
   3      -0.1830808082469
   4    -1.0707241844363e-06
   5    1.6192125138104e-06
   6      -0.4033446213404
   7    1.1697336799207e-06
   8    -1.6321929807375e-06
   9      0.27926246179515
  10      -0.3532792748369
  11    -3.9150795099694e-06
  12     5.14993598895e-06
  13    -2.94155956978e-07
  14    -1.4013202726971e-06
  15    -0.061115294033022
  16     -0.12636881376824
  17      0.56333386620225
  18    1.4140964148332e-07
  19    1.6592855476871e-07
  20       0.1226175119886
  21    1.9633602615355e-06
  22    -3.0670645266794e-06
  23     -0.85130072949623
  24     -0.55029381935546
  25    2.9852579624734e-06
  26    -4.3011688147124e-06
  27    -1.3300460259504e-06
  28    -1.2261167418636e-06
 Sym= A
 Ene=               0
 Spin= Alpha
 Occup=    0.00629
   1    1.0121031045332e-06
   2    2.0333327986103e-06
   3    2.5852621643157e-06
   4     -0.22372221506195
   5    0.0054457966253242
   6    2.7872425836245e-06
   7      0.22943855046007
   8    -0.005584811193114
   9    -1.3493724252978e-06
  10    2.1419782271973e-06
  11     -0.62759061548851
  12     0.015276535317395
  13    5.8339002477241e-08
  14    -9.8172203112726e-08
  15    6.9174947997373e-07
  16    1.4643799398733e-06
  17    -4.9235406764487e-06
  18    -0.031959694991831
  19    0.00077842369424441
  20    -6.3847690113362e-07
  21      0.38402447128564
  22    -0.0093484331496457
  23    5.3176623446949e-06
  24    3.2541359684498e-06
  25       0.5447216267744
  26    -0.013260178604727
  27    -7.366217703039e-08
  28    -7.7991439758053e-09
 Sym= A
 Ene=               0
 Spin= Alpha
 Occup=    0.00629
   1    1.3530651614362e-06
   2    2.7724121668865e-06
   3    3.4467731712605e-06
   4    0.0054461166248371
   5      0.22371904539072
   6    3.2801400107384e-06
   7    -0.0055850572174605
   8      -0.2294290692614
   9    -1.1904577869044e-06
  10    2.8711557655432e-06
  11     0.015276679905774
  12      0.62758288694787
  13    1.3917597971034e-08
  14    9.5894842700414e-09
  15    9.4843103286381e-07
  16    2.0017058874165e-06
  17    -6.8322751166121e-06
  18    0.00077851785772016
  19     0.031970609865306
  20    -9.2866630866793e-07
  21    -0.0093485919741165
  22     -0.38403745085852
  23    7.0012918325827e-06
  24    4.5279979338859e-06
  25    -0.013259892596773
  26     -0.54472876089816
  27    1.3793362353274e-07
  28    -3.7806150660269e-08
 Sym= A
 Ene=               0
 Spin= Alpha
 Occup=    0.00490
   1    -1.1475242703009e-06
   2    -3.0050008179038e-06
   3    4.2351118848058e-06
   4    5.8617950789539e-07
   5    7.9508246643742e-08
   6    1.7650365803305e-06
   7    -8.9783579819775e-07
   8    2.6360159986007e-07
   9    -1.5606609097256e-06
  10      1.0945531918e-06
  11    -2.4303134740813e-07
  12     4.06621413175e-07
  13    -0.081568226259023
  14     -0.59521744340341
  15    6.6931609203497e-08
  16    1.9243124260488e-07
  17    -1.5275346432817e-06
  18    6.3521537014113e-08
  19    3.0773826843623e-08
  20    -4.5329810393967e-07
  21    2.9084110691196e-07
  22    -4.0432346104264e-07
  23    1.6168768043472e-06
  24    1.2349053960138e-06
  25    1.2113677627423e-08
  26    3.6982225702921e-07
  27    -0.097682293142065
  28     -0.71280344205203
 Sym= A
 Ene=               0
 Spin= Alpha
 Occup=    0.00490
   1    7.9170240178285e-07
   2    1.6694592838816e-06
   3    4.8760695997795e-06
   4    9.5779502213967e-07
   5     7.73097903259e-09
   6    2.6642009252992e-06
   7    -1.0799593693726e-06
   8    5.0597292530009e-07
   9    3.2287069902635e-06
  10    1.459183667954e-06
  11    -1.3565988865688e-07
  12    -6.7084161996744e-09
  13      0.59521692812413
  14    -0.081568231109545
  15    1.6541187300784e-06
  16    3.4738886533835e-06
  17    -1.0116601558687e-05
  18    1.8018149642991e-07
  19    4.3470336856785e-07
  20    1.7801113174045e-06
  21    5.7118104249179e-08
  22    -7.7034375356381e-07
  23    2.1429782676571e-06
  24    -2.3017360816623e-06
  25    3.7937897563778e-07
  26    1.5911481712036e-07
  27      0.71280389194106
  28    -0.097682288908434
 Sym= A
 Ene=               0
 Spin= Alpha
 Occup=    0.00216
   1    -0.0071866207675482
   2     0.094493877953187
   3    -0.096707230536808
   4    -3.7547266555864e-07
   5    1.7619056986516e-06
   6      0.44312254588403
   7    -1.639079559489e-07
   8    -1.3342301381586e-06
   9      -0.1398438512692
  10       1.1742890219435
  11    -9.0258571504144e-07
  12    1.824561839612e-06
  13    -1.1496981375726e-06
  14    -1.3259388961496e-05
  15     -0.51226307997654
  16      -1.0876610998553
  17       0.5367117356484
  18    -7.7820809372396e-09
  19    -3.2625052875831e-07
  20         0.68209576316
  21    6.7896001098794e-07
  22    -4.6051836125717e-07
  23     -0.40013159940727
  24     -0.39981741777775
  25    -7.7455282876989e-07
  26    1.9979702301266e-06
  27    6.2249326864103e-07
  28    1.2093098103031e-05
 Sym= A
 Ene=               0
 Spin= Alpha
 Occup=    0.00201
   1    2.1501019272137e-07
   2    -1.9962897276743e-06
   3    2.4342663953868e-05
   4    -5.5459710718368e-06
   5    -8.366354899745e-07
   6    -1.8991407954214e-06
   7    5.4562282600549e-06
   8    1.1295558368931e-06
   9    1.6837199682465e-05
  10    -1.3702513620024e-05
  11    -4.0839711741581e-06
  12    -4.3029491238737e-07
  13    -0.036085495496069
  14     -0.81110366254452
  15    1.3038598136062e-05
  16    2.7177316055559e-05
  17    -4.2752665970232e-05
  18    1.2584707510888e-06
  19    3.6244158859343e-07
  20    -9.3806294777785e-06
  21    -4.0172858277956e-07
  22    -5.1422215118397e-07
  23    1.6381455893933e-05
  24    4.8053252190163e-06
  25    -6.027644398415e-06
  26    -7.6978742124876e-07
  27     0.031506129519143
  28      0.70817038031371
 Sym= A
 Ene=               0
 Spin= Alpha
 Occup=    0.00201
   1    -5.1351009019507e-06
   2    -1.0101010875655e-05
   3    -1.7013531104748e-05
   4    -1.8808341334684e-06
   5    -2.3992578541242e-06
   6    -1.0962154432609e-05
   7    1.6789722897674e-06
   8    3.3615676372748e-06
   9    -9.5672601682146e-06
  10    -3.4180625496099e-06
  11    -1.5582955189021e-06
  12    -9.0603115474594e-07
  13      0.81110404268686
  14    -0.036085526872786
  15    -5.503639352957e-06
  16    -1.0756672325041e-05
  17    3.468592299176e-05
  18    3.7386974176466e-07
  19    9.3047230818415e-07
  20    -8.8029563962263e-07
  21    8.3293015507589e-08
  22    -1.564866958167e-06
  23    -1.6715591621134e-05
  24    8.5823726936976e-06
  25    -2.2719764653464e-06
  26    -1.9518726467499e-06
  27     -0.70816992531887
  28     0.031506091990775
 Sym= A
 Ene=               0
 Spin= Alpha
 Occup=    0.00173
   1    2.9504868616846e-07
   2    4.0534617710018e-07
   3    4.5803083773336e-07
   4     -0.67753285133606
   5      0.28173553822416
   6    -1.1802925742455e-07
   7      0.59696527746621
   8     -0.24823064267604
   9    1.4192575605698e-07
  10    -1.7939518864366e-06
  11     -0.55302918606975
  12      0.22996834823136
  13    -3.8216170302963e-07
  14    5.0804938969538e-06
  15    9.4797125166767e-07
  16    1.9734048848885e-06
  17    -1.6742907366088e-06
  18      0.12312837309444
  19    -0.051198445377047
  20    -1.103461152848e-06
  21     0.050240171747178
  22    -0.020896801368218
  23    1.3675762873758e-06
  24    1.7170432992822e-07
  25      -0.7719642655218
  26      0.32100213902839
  27    1.210634150481e-06
  28    -4.9100104354387e-06
 Sym= A
 Ene=               0
 Spin= Alpha
 Occup=    0.00173
   1    5.0002438583619e-07
   2    7.4170494489439e-07
   3    -5.2548617914512e-07
   4      0.28173521573486
   5      0.67753127592449
   6    3.1181589604156e-08
   7     -0.24823219209047
   8     -0.59694896847832
   9    -1.0112577780663e-06
  10    -2.7613370447556e-06
  11      0.22996443015576
  12      0.55304690461522
  13    2.8547768510944e-06
  14    -3.074961659843e-06
  15    9.8715190552191e-07
  16    2.0303786636817e-06
  17    -3.27718265527e-07
  18    -0.051200051435822
  19     -0.12312312247516
  20    -1.6182349858855e-06
  21    -0.020891968208498
  22    -0.050263489439921
  23    1.6748985955094e-06
  24    -1.2466044659524e-07
  25      0.32100313422394
  26      0.77196736246363
  27    -2.6894886277683e-06
  28    3.1659681974191e-06
 Sym= A
 Ene=               0
 Spin= Alpha
 Occup=    0.00102
   1     -0.67219545021637
   2      -1.3669937409925
   3       0.1717248688961
   4    3.6955187700581e-07
   5    -1.7764117482847e-07
   6     -0.99988707353581
   7    -1.5539528954791e-06
   8    3.0216628613767e-06
   9       0.5067922616856
  10       0.1255063427115
  11    -1.0248632726074e-06
  12    3.0157242809831e-06
  13    -4.5016048339152e-06
  14    1.0551986024763e-06
  15     -0.20985966469673
  16     -0.37865634022009
  17      0.83628706030851
  18    -3.286240943633e-07
  19    6.0436867620469e-07
  20      0.11871138289902
  21    1.5395185667141e-06
  22    -3.5998814680799e-06
  23      -1.2717981224559
  24      0.95327027287754
  25    -7.2156780928351e-07
  26    2.768196472299e-06
  27    5.1715182829548e-06
  28    -6.7376257950651e-07
 Sym= A
 Ene=               0
 Spin= Alpha
 Occup=    0.00070
   1    1.0261489965863e-06
   2    2.1506056726241e-06
   3    2.9750458954226e-06
   4     -0.21524431840655
   5     -0.17430995970507
   6    1.7898605177476e-06
   7      0.95708245009455
   8       0.7750426634458
   9    2.3121866797769e-06
  10    1.2183702539461e-06
  11      0.64867267297222
  12      0.52528334200628
  13    -5.1199220605385e-07
  14    4.1648769155082e-07
  15    7.8491142972626e-07
  16    1.4772645497802e-06
  17    -6.3936110808516e-06
  18      0.19906692314848
  19      0.16120290796332
  20    3.3887304116211e-07
  21      -0.9654666313411
  22     -0.78182408237968
  23    2.9675975168582e-06
  24    -1.4651000858568e-06
  25      0.41972265696363
  26      0.33988171676615
  27    5.6412163204064e-07
  28    -5.9639886526294e-07
 Sym= A
 Ene=               0
 Spin= Alpha
 Occup=    0.00070
   1    2.4773587751003e-06
   2    4.9531170737153e-06
   3    4.1737452839596e-06
   4      0.17430045361807
   5     -0.21525223610964
   6    4.2439157971593e-06
   7     -0.77503470312274
   8      0.95708944638187
   9    1.8569019977782e-06
  10    3.8061932433045e-07
  11     -0.52529253652633
  12      0.64866702441227
  13    -1.0373302402671e-06
  14    3.6554589574114e-07
  15    1.8031776325398e-06
  16    3.4213506924173e-06
  17    -1.03605788686e-05
  18     -0.16119955133424
  19      0.19906475855514
  20    -3.7087045621724e-07
  21      0.78182440066262
  22     -0.96546244164267
  23    6.8635592362553e-06
  24    -3.3159719529047e-06
  25     -0.33989081908771
  26      0.41971658539088
  27    3.0526570651853e-07
  28    4.6536605020806e-07
 Sym= A
 Ene=               0
 Spin= Alpha
 Occup=    0.00024
   1      0.27195495521444
   2      0.55230364494731
   3       2.8314856824994
   4    2.3031277779796e-07
   5    5.275429660133e-07
   6      0.72436091584565
   7    -1.4406542949945e-07
   8    -2.5153472814201e-06
   9       2.2648280731791
  10      0.84992209823995
  11    2.666963703608e-07
  12    -1.7566288017743e-06
  13    3.9397212721632e-06
  14    5.3789201592865e-06
  15      0.58909839151889
  16       1.1355411925194
  17      -4.7887668534963
  18    -3.2435344859827e-08
  19    -4.6244542480355e-07
  20      0.22207807353955
  21    -1.3917785680943e-07
  22    2.6004917997476e-06
  23       1.6185179301326
  24     -0.40522459308325
  25    5.8733667317278e-08
  26    -5.8470877023306e-07
  27    -5.5809588789155e-06
  28    -4.4493846869718e-06
