[Molden Format]
[Title]
 Molden file created by orca_2mkl for BaseName=HF

[Atoms] AU
C    1   6          0.0000000000         0.0000000000         0.0000000000
O    2   8          0.0000000000         0.0000000000         2.1342566957
[GTO]
  1 0
s   8 1.0
     6665.0000000000         0.3635842998
     1000.0000000000         0.6749857928
      228.0000000000         1.1316199410
       64.7100000000         1.6530092121
       21.0600000000         1.9238206437
        7.4950000000         1.4472783162
        2.7970000000         0.4391631292
        0.5215000000         0.0066458037
s   8 1.0
     6665.0000000000        -0.1541797483
     1000.0000000000        -0.2937853735
      228.0000000000        -0.4808958038
       64.7100000000        -0.7614343161
       21.0600000000        -0.9001038923
        7.4950000000        -0.9726113518
        2.7970000000        -0.3940419460
        0.5215000000         0.4783944249
s   1 1.0
        0.1596000000         0.1799636353
p   3 1.0
        9.4390000000         1.3437371095
        2.0020000000         1.0631680879
        0.5456000000         0.5082318338
p   1 1.0
        0.1517000000         0.1349497436
d   1 1.0
        0.5500000000         1.0013935509

  2 0
s   8 1.0
    11720.0000000000         0.5697017158
     1759.0000000000         1.0583521000
      400.8000000000         1.7762810558
      113.7000000000         2.5994118899
       37.0300000000         3.0268459958
       13.2700000000         2.2223943344
        5.0250000000         0.6477954310
        1.0130000000         0.0111186960
s   8 1.0
    11720.0000000000        -0.2524342625
     1759.0000000000        -0.4804910908
      400.8000000000        -0.7862996613
      113.7000000000        -1.2541699039
       37.0300000000        -1.4912179216
       13.2700000000        -1.6108317779
        5.0250000000        -0.5497983753
        1.0130000000         0.7882822080
s   1 1.0
        0.3023000000         0.2905619240
p   3 1.0
       17.7000000000         3.2436193456
        3.8540000000         2.5672796523
        1.0460000000         1.1176693232
p   1 1.0
        0.2753000000         0.2842482844
d   1 1.0
        1.1850000000         3.8368709885

[5D]
[7F]
[9G]
[MO]
 Sym=     1a
 Ene= -2.06693598340721E+01
 Spin= Alpha
 Occup= 2.000000
  1       0.000088983023
  2      -0.000032219517
  3       0.001866749219
  4       0.000000000000
  5       0.000000000000
  6      -0.000278419920
  7       0.000000000000
  8       0.000000000000
  9       0.001173029152
 10      -0.000573774574
 11       0.000000000000
 12       0.000000000000
 13       0.000000000000
 14       0.000000000000
 15       1.001170878544
 16       0.001634010813
 17      -0.004921620044
 18       0.000000000000
 19       0.000000000000
 20      -0.001764414008
 21       0.000000000000
 22      -0.000000000000
 23       0.001269178061
 24       0.000398663101
 25       0.000000000000
 26       0.000000000000
 27      -0.000000000000
 28      -0.000000000000
 Sym=     1a
 Ene= -1.13671123514198E+01
 Spin= Alpha
 Occup= 2.000000
  1       1.001305499749
  2       0.002097132515
  3      -0.000616062727
  4       0.000000000000
  5      -0.000000000000
  6       0.003833469859
  7       0.000000000000
  8       0.000000000000
  9       0.000950333074
 10       0.001911917804
 11       0.000000000000
 12       0.000000000000
 13      -0.000000000000
 14      -0.000000000000
 15      -0.000375331662
 16       0.000662378646
 17      -0.003969835479
 18       0.000000000000
 19      -0.000000000000
 20      -0.000317300932
 21      -0.000000000000
 22      -0.000000000000
 23       0.002523813802
 24       0.000055644484
 25       0.000000000000
 26       0.000000000000
 27       0.000000000000
 28       0.000000000000
 Sym=     1a
 Ene= -1.52210282164512E+00
 Spin= Alpha
 Occup= 2.000000
  1       0.015374360840
  2      -0.216546276764
  3      -0.074989672068
  4       0.000000000000
  5       0.000000000000
  6      -0.212216823042
  7       0.000000000000
  8       0.000000000000
  9      -0.011306837726
 10      -0.044534125369
 11       0.000000000000
 12       0.000000000000
 13      -0.000000000000
 14       0.000000000000
 15       0.009554090826
 16      -0.419880126398
 17      -0.348079052336
 18      -0.000000000000
 19       0.000000000000
 20       0.159937865271
 21      -0.000000000000
 22       0.000000000000
 23       0.027618467036
 24      -0.020602964147
 25       0.000000000000
 26       0.000000000000
 27      -0.000000000000
 28      -0.000000000000
 Sym=     1a
 Ene= -8.01996231001238E-01
 Spin= Alpha
 Occup= 2.000000
  1       0.008723501842
  2       0.299478600656
  3       0.140049583205
  4      -0.000000000000
  5       0.000000000000
  6       0.127221099338
  7      -0.000000000000
  8       0.000000000000
  9      -0.042034206344
 10       0.017752335089
 11       0.000000000000
 12       0.000000000000
 13       0.000000000000
 14       0.000000000000
 15      -0.003231109401
 16      -0.239361948550
 17      -0.385765225091
 18       0.000000000000
 19       0.000000000000
 20      -0.495949821201
 21       0.000000000000
 22       0.000000000000
 23      -0.261434630932
 24       0.023756178210
 25       0.000000000000
 26      -0.000000000000
 27      -0.000000000000
 28      -0.000000000000
 Sym=     1a
 Ene= -6.33897019289807E-01
 Spin= Alpha
 Occup= 2.000000
  1       0.000000000000
  2      -0.000000000000
  3      -0.000000000000
  4       0.290169264743
  5       0.053971902261
  6       0.000000000000
  7       0.130606854226
  8       0.024293063777
  9      -0.000000000000
 10       0.000000000000
 11       0.062377884758
 12       0.011602376590
 13       0.000000000000
 14      -0.000000000000
 15      -0.000000000000
 16      -0.000000000000
 17       0.000000000000
 18       0.538782624621
 19       0.100214345622
 20       0.000000000000
 21       0.348906307680
 22       0.064897076548
 23      -0.000000000000
 24       0.000000000000
 25      -0.030124867927
 26      -0.005603268918
 27      -0.000000000000
 28       0.000000000000
 Sym=     1a
 Ene= -6.33897019289800E-01
 Spin= Alpha
 Occup= 2.000000
  1      -0.000000000000
  2      -0.000000000000
  3      -0.000000000000
  4      -0.053971902261
  5       0.290169264743
  6       0.000000000000
  7      -0.024293063777
  8       0.130606854226
  9       0.000000000000
 10       0.000000000000
 11      -0.011602376590
 12       0.062377884758
 13       0.000000000000
 14       0.000000000000
 15       0.000000000000
 16       0.000000000000
 17       0.000000000000
 18      -0.100214345622
 19       0.538782624621
 20       0.000000000000
 21      -0.064897076548
 22       0.348906307680
 23       0.000000000000
 24       0.000000000000
 25       0.005603268918
 26      -0.030124867927
 27       0.000000000000
 28      -0.000000000000
 Sym=     1a
 Ene= -5.48958018485701E-01
 Spin= Alpha
 Occup= 2.000000
  1       0.006094705073
  2      -0.293221235593
  3      -0.579534120285
  4      -0.000000000000
  5      -0.000000000000
  6       0.452627862391
  7      -0.000000000000
  8      -0.000000000000
  9       0.162925013120
 10       0.034141698083
 11       0.000000000000
 12      -0.000000000000
 13      -0.000000000000
 14      -0.000000000000
 15       0.000334327837
 16       0.033066450642
 17       0.008293641919
 18       0.000000000000
 19       0.000000000000
 20      -0.253934450383
 21       0.000000000000
 22       0.000000000000
 23      -0.151215169265
 24       0.015038514647
 25      -0.000000000000
 26       0.000000000000
 27       0.000000000000
 28      -0.000000000000
 Sym=     1a
 Ene= 1.54142745523568E-01
 Spin= Alpha
 Occup= 0.000000
  1       0.000000000000
  2       0.000000000000
  3      -0.000000000000
  4       0.432672502609
  5      -0.092497519731
  6       0.000000000000
  7       0.755488659916
  8      -0.161509749034
  9       0.000000000000
 10       0.000000000000
 11      -0.008742291911
 12       0.001868943205
 13      -0.000000000000
 14      -0.000000000000
 15      -0.000000000000
 16       0.000000000000
 17      -0.000000000000
 18      -0.340155877783
 19       0.072719146692
 20      -0.000000000000
 21      -0.490517306915
 22       0.104863688243
 23      -0.000000000000
 24       0.000000000000
 25      -0.008826600457
 26       0.001886966793
 27       0.000000000000
 28       0.000000000000
 Sym=     1a
 Ene= 1.54142745523570E-01
 Spin= Alpha
 Occup= 0.000000
  1       0.000000000000
  2       0.000000000000
  3      -0.000000000000
  4       0.092497519731
  5       0.432672502609
  6       0.000000000000
  7       0.161509749034
  8       0.755488659916
  9       0.000000000000
 10       0.000000000000
 11      -0.001868943205
 12      -0.008742291911
 13       0.000000000000
 14       0.000000000000
 15      -0.000000000000
 16       0.000000000000
 17      -0.000000000000
 18      -0.072719146692
 19      -0.340155877783
 20      -0.000000000000
 21      -0.104863688243
 22      -0.490517306915
 23      -0.000000000000
 24       0.000000000000
 25      -0.001886966793
 26      -0.008826600457
 27      -0.000000000000
 28       0.000000000000
 Sym=     1a
 Ene= 3.82491972375156E-01
 Spin= Alpha
 Occup= 0.000000
  1       0.064642275571
  2       0.075509161100
  3      -1.630850513232
  4       0.000000000000
  5       0.000000000000
  6      -0.077488192772
  7       0.000000000000
  8       0.000000000000
  9      -1.734979469369
 10      -0.056856895354
 11       0.000000000000
 12       0.000000000000
 13       0.000000000000
 14      -0.000000000000
 15      -0.061482939685
 16       0.081288615167
 17       1.862544815283
 18      -0.000000000000
 19      -0.000000000000
 20      -0.069088360236
 21      -0.000000000000
 22      -0.000000000000
 23      -0.581689846478
 24       0.036027951944
 25       0.000000000000
 26       0.000000000000
 27       0.000000000000
 28       0.000000000000
 Sym=     1a
 Ene= 6.72170212831260E-01
 Spin= Alpha
 Occup= 0.000000
  1      -0.000000000000
  2      -0.000000000000
  3       0.000000000000
  4       0.571919904480
  5      -0.864301416277
  6       0.000000000000
  7      -0.561001566962
  8       0.847801318088
  9      -0.000000000000
 10       0.000000000000
 11       0.018374606117
 12      -0.027768220630
 13       0.000000000000
 14       0.000000000000
 15       0.000000000000
 16       0.000000000000
 17      -0.000000000000
 18      -0.003193476454
 19       0.004826071274
 20       0.000000000000
 21       0.006878527723
 22      -0.010395024209
 23       0.000000000000
 24       0.000000000000
 25      -0.027966771521
 26       0.042264170288
 27       0.000000000000
 28      -0.000000000000
 Sym=     1a
 Ene= 6.72170212831261E-01
 Spin= Alpha
 Occup= 0.000000
  1       0.000000000000
  2       0.000000000000
  3      -0.000000000000
  4      -0.864301416277
  5      -0.571919904480
  6      -0.000000000000
  7       0.847801318088
  8       0.561001566962
  9      -0.000000000000
 10      -0.000000000000
 11      -0.027768220630
 12      -0.018374606117
 13       0.000000000000
 14       0.000000000000
 15      -0.000000000000
 16      -0.000000000000
 17       0.000000000000
 18       0.004826071274
 19       0.003193476454
 20       0.000000000000
 21      -0.010395024209
 22      -0.006878527723
 23       0.000000000000
 24       0.000000000000
 25       0.042264170288
 26       0.027966771521
 27       0.000000000000
 28      -0.000000000000
 Sym=     1a
 Ene= 7.26388362299140E-01
 Spin= Alpha
 Occup= 0.000000
  1      -0.481465504196
  2      -1.224106164484
  3       1.626194108303
  4      -0.000000000000
  5      -0.000000000000
  6       0.634602875825
  7       0.000000000000
  8       0.000000000000
  9      -0.333605022782
 10       0.019652590169
 11       0.000000000000
 12      -0.000000000000
 13      -0.000000000000
 14       0.000000000000
 15      -0.004451793662
 16      -0.056735524378
 17      -0.394416475493
 18      -0.000000000000
 19       0.000000000000
 20      -0.093813748343
 21      -0.000000000000
 22       0.000000000000
 23       0.346675596224
 24      -0.007077584253
 25       0.000000000000
 26       0.000000000000
 27       0.000000000000
 28       0.000000000000
 Sym=     1a
 Ene= 1.01685116400433E+00
 Spin= Alpha
 Occup= 0.000000
  1       0.509135389332
  2       1.182754417824
  3      -0.225524032511
  4       0.000000000000
  5       0.000000000000
  6       0.892872095774
  7      -0.000000000000
  8      -0.000000000000
  9      -0.343446332962
 10      -0.190195853283
 11       0.000000000000
 12       0.000000000000
 13       0.000000000000
 14       0.000000000000
 15      -0.030543287358
 16      -0.242446460521
 17      -0.234533850441
 18      -0.000000000000
 19      -0.000000000000
 20       0.045389641876
 21       0.000000000000
 22       0.000000000000
 23       1.107963177650
 24       0.115245079711
 25      -0.000000000000
 26       0.000000000000
 27      -0.000000000000
 28      -0.000000000000
 Sym=     1a
 Ene= 1.06145276091664E+00
 Spin= Alpha
 Occup= 0.000000
  1       0.175996607763
  2       0.239480377002
  3       0.769675280557
  4      -0.000000000000
  5      -0.000000000000
  6      -0.146659934627
  7      -0.000000000000
  8       0.000000000000
  9       0.583252465918
 10       0.548196892844
 11      -0.000000000000
 12      -0.000000000000
 13       0.000000000000
 14      -0.000000000000
 15       0.000440243854
 16      -0.019035004921
 17      -0.955494963684
 18       0.000000000000
 19       0.000000000000
 20      -0.721213334149
 21      -0.000000000000
 22      -0.000000000000
 23       1.213148671731
 24      -0.058100372361
 25      -0.000000000000
 26      -0.000000000000
 27       0.000000000000
 28      -0.000000000000
 Sym=     1a
 Ene= 1.22461869248035E+00
 Spin= Alpha
 Occup= 0.000000
  1      -0.000000000000
  2      -0.000000000000
  3       0.000000000000
  4       0.067607795918
  5       0.023950413943
  6      -0.000000000000
  7      -0.549473754277
  8      -0.194653940232
  9       0.000000000000
 10       0.000000000000
 11      -0.273494744421
 12      -0.096886938129
 13      -0.000000000000
 14       0.000000000000
 15      -0.000000000000
 16      -0.000000000000
 17      -0.000000000000
 18      -0.851539923337
 19      -0.301662454398
 20      -0.000000000000
 21       1.299045555429
 22       0.460193656089
 23       0.000000000000
 24      -0.000000000000
 25       0.029833081408
 26       0.010568524520
 27      -0.000000000000
 28       0.000000000000
 Sym=     1a
 Ene= 1.22461869248036E+00
 Spin= Alpha
 Occup= 0.000000
  1       0.000000000000
  2       0.000000000000
  3       0.000000000000
  4      -0.023950413943
  5       0.067607795918
  6      -0.000000000000
  7       0.194653940232
  8      -0.549473754277
  9       0.000000000000
 10       0.000000000000
 11       0.096886938129
 12      -0.273494744421
 13      -0.000000000000
 14      -0.000000000000
 15       0.000000000000
 16       0.000000000000
 17      -0.000000000000
 18       0.301662454398
 19      -0.851539923337
 20      -0.000000000000
 21      -0.460193656089
 22       1.299045555429
 23       0.000000000000
 24      -0.000000000000
 25      -0.010568524520
 26       0.029833081408
 27      -0.000000000000
 28      -0.000000000000
 Sym=     1a
 Ene= 1.34421509751381E+00
 Spin= Alpha
 Occup= 0.000000
  1       0.000000000000
  2       0.000000000000
  3      -0.000000000000
  4      -0.000000000000
  5      -0.000000000000
  6      -0.000000000000
  7       0.000000000000
  8       0.000000000000
  9      -0.000000000000
 10       0.000000000000
 11       0.000000000000
 12       0.000000000000
 13      -0.937091932519
 14      -0.295869378141
 15      -0.000000000000
 16      -0.000000000000
 17       0.000000000000
 18       0.000000000000
 19       0.000000000000
 20       0.000000000000
 21      -0.000000000000
 22      -0.000000000000
 23      -0.000000000000
 24       0.000000000000
 25      -0.000000000000
 26      -0.000000000000
 27      -0.088676778251
 28      -0.027998046217
 Sym=     1a
 Ene= 1.34421509751381E+00
 Spin= Alpha
 Occup= 0.000000
  1      -0.000000000000
  2      -0.000000000000
  3       0.000000000000
  4       0.000000000000
  5       0.000000000000
  6       0.000000000000
  7      -0.000000000000
  8      -0.000000000000
  9      -0.000000000000
 10      -0.000000000000
 11      -0.000000000000
 12      -0.000000000000
 13       0.295869378141
 14      -0.937091932519
 15       0.000000000000
 16       0.000000000000
 17      -0.000000000000
 18      -0.000000000000
 19       0.000000000000
 20       0.000000000000
 21       0.000000000000
 22       0.000000000000
 23       0.000000000000
 24      -0.000000000000
 25       0.000000000000
 26       0.000000000000
 27       0.027998046217
 28      -0.088676778251
 Sym=     1a
 Ene= 1.55740114752006E+00
 Spin= Alpha
 Occup= 0.000000
  1       0.000000000000
  2       0.000000000000
  3      -0.000000000000
  4       0.063054635156
  5       0.008108241464
  6       0.000000000000
  7      -0.238440745592
  8      -0.030661269157
  9      -0.000000000000
 10      -0.000000000000
 11      -1.037325366270
 12      -0.133390424442
 13      -0.000000000000
 14       0.000000000000
 15       0.000000000000
 16       0.000000000000
 17       0.000000000000
 18       0.386001865023
 19       0.049636260989
 20      -0.000000000000
 21       0.242658771226
 22       0.031203668146
 23       0.000000000000
 24       0.000000000000
 25       0.098530579648
 26       0.012670119007
 27      -0.000000000000
 28      -0.000000000000
 Sym=     1a
 Ene= 1.55740114752006E+00
 Spin= Alpha
 Occup= 0.000000
  1      -0.000000000000
  2      -0.000000000000
  3       0.000000000000
  4       0.008108241464
  5      -0.063054635156
  6      -0.000000000000
  7      -0.030661269157
  8       0.238440745592
  9      -0.000000000000
 10      -0.000000000000
 11      -0.133390424442
 12       1.037325366270
 13       0.000000000000
 14       0.000000000000
 15       0.000000000000
 16       0.000000000000
 17       0.000000000000
 18       0.049636260989
 19      -0.386001865023
 20      -0.000000000000
 21       0.031203668146
 22      -0.242658771226
 23       0.000000000000
 24      -0.000000000000
 25       0.012670119007
 26      -0.098530579648
 27       0.000000000000
 28       0.000000000000
 Sym=     1a
 Ene= 1.93895577632725E+00
 Spin= Alpha
 Occup= 0.000000
  1      -0.149665716578
  2      -0.315485336751
  3      -1.992706303963
  4      -0.000000000000
  5      -0.000000000000
  6      -0.555060005170
  7      -0.000000000000
  8      -0.000000000000
  9      -1.376580302907
 10      -0.674778056378
 11      -0.000000000000
 12      -0.000000000000
 13       0.000000000000
 14      -0.000000000000
 15      -0.697262775894
 16      -1.520909593942
 17       3.977503879032
 18       0.000000000000
 19      -0.000000000000
 20      -0.419814946148
 21       0.000000000000
 22       0.000000000000
 23      -0.892212685515
 24      -0.134028837559
 25      -0.000000000000
 26      -0.000000000000
 27      -0.000000000000
 28       0.000000000000
 Sym=     1a
 Ene= 2.34061292737104E+00
 Spin= Alpha
 Occup= 0.000000
  1       0.070814169470
  2      -0.039299382988
  3      -0.006697177169
  4      -0.000000000000
  5       0.000000000000
  6      -0.425171054851
  7       0.000000000000
  8      -0.000000000000
  9      -0.115103510574
 10      -1.136461322342
 11       0.000000000000
 12      -0.000000000000
 13      -0.000000000000
 14      -0.000000000000
 15       0.579845900192
 16       1.292114171211
 17      -0.539599336736
 18      -0.000000000000
 19       0.000000000000
 20      -0.831713964967
 21      -0.000000000000
 22       0.000000000000
 23       0.491067308366
 24       0.034143423301
 25      -0.000000000000
 26       0.000000000000
 27       0.000000000000
 28       0.000000000000
 Sym=     1a
 Ene= 2.93693538968762E+00
 Spin= Alpha
 Occup= 0.000000
  1      -0.000000000000
  2      -0.000000000000
  3      -0.000000000000
  4       0.000000000000
  5       0.000000000000
  6      -0.000000000000
  7       0.000000000000
  8      -0.000000000000
  9      -0.000000000000
 10      -0.000000000000
 11       0.000000000000
 12       0.000000000000
 13      -0.227473576580
 14       0.052002793240
 15      -0.000000000000
 16      -0.000000000000
 17       0.000000000000
 18       0.000000000000
 19      -0.000000000000
 20      -0.000000000000
 21      -0.000000000000
 22      -0.000000000000
 23      -0.000000000000
 24      -0.000000000000
 25       0.000000000000
 26       0.000000000000
 27       0.980430457907
 28      -0.224136460837
 Sym=     1a
 Ene= 2.93693538968762E+00
 Spin= Alpha
 Occup= 0.000000
  1       0.000000000000
  2       0.000000000000
  3      -0.000000000000
  4       0.000000000000
  5       0.000000000000
  6       0.000000000000
  7       0.000000000000
  8       0.000000000000
  9       0.000000000000
 10       0.000000000000
 11       0.000000000000
 12       0.000000000000
 13      -0.052002793240
 14      -0.227473576580
 15      -0.000000000000
 16      -0.000000000000
 17      -0.000000000000
 18       0.000000000000
 19      -0.000000000000
 20       0.000000000000
 21      -0.000000000000
 22      -0.000000000000
 23      -0.000000000000
 24       0.000000000000
 25       0.000000000000
 26       0.000000000000
 27       0.224136460837
 28       0.980430457907
 Sym=     1a
 Ene= 3.42516148755382E+00
 Spin= Alpha
 Occup= 0.000000
  1      -0.000000000000
  2      -0.000000000000
  3       0.000000000000
  4       0.037245932689
  5      -0.297381249447
  6       0.000000000000
  7       0.026597491418
  8      -0.212361314616
  9       0.000000000000
 10      -0.000000000000
 11       0.082295452672
 12      -0.657068376931
 13      -0.000000000000
 14      -0.000000000000
 15       0.000000000000
 16       0.000000000000
 17      -0.000000000000
 18      -0.002781327201
 19       0.022206842420
 20       0.000000000000
 21      -0.057751768464
 22       0.461105195211
 23      -0.000000000000
 24      -0.000000000000
 25       0.140514583600
 26      -1.121905116059
 27       0.000000000000
 28       0.000000000000
 Sym=     1a
 Ene= 3.42516148755382E+00
 Spin= Alpha
 Occup= 0.000000
  1       0.000000000000
  2       0.000000000000
  3      -0.000000000000
  4       0.297381249447
  5       0.037245932689
  6      -0.000000000000
  7       0.212361314616
  8       0.026597491418
  9       0.000000000000
 10      -0.000000000000
 11       0.657068376931
 12       0.082295452672
 13       0.000000000000
 14       0.000000000000
 15      -0.000000000000
 16      -0.000000000000
 17       0.000000000000
 18      -0.022206842420
 19      -0.002781327201
 20      -0.000000000000
 21      -0.461105195211
 22      -0.057751768464
 23       0.000000000000
 24       0.000000000000
 25       1.121905116059
 26       0.140514583600
 27      -0.000000000000
 28      -0.000000000000
 Sym=     1a
 Ene= 3.87015679288004E+00
 Spin= Alpha
 Occup= 0.000000
  1       0.553200796335
  2       1.146061686158
  3       0.831448839569
  4       0.000000000000
  5       0.000000000000
  6       1.086357644777
  7       0.000000000000
  8       0.000000000000
  9       0.453372394809
 10       0.406999167026
 11       0.000000000000
 12       0.000000000000
 13       0.000000000000
 14      -0.000000000000
 15       0.261842152450
 16       0.475040524830
 17      -2.177192347247
 18       0.000000000000
 19       0.000000000000
 20       0.274249543732
 21       0.000000000000
 22      -0.000000000000
 23       1.154393840853
 24      -1.226415870501
 25       0.000000000000
 26       0.000000000000
 27      -0.000000000000
 28       0.000000000000
