2
Energy: -100.34836201387634
H        0.000000     0.000000     0.000000
F        0.000000     0.000000     1.000000
2
Energy: -100.35179545925703
H       -0.000000     0.000000     0.043200
F        0.000000    -0.000000     0.956802
2
Energy: -100.35218343492456
H       -0.000000     0.000000     0.030766
F        0.000000    -0.000000     0.969235
2
Energy: -100.3522097913712
H       -0.000000     0.000000     0.033158
F        0.000000    -0.000000     0.966844
2
Energy: -100.35220993770015
H       -0.000000     0.000000     0.033345
F        0.000000    -0.000000     0.966657
2
Energy: -100.35220993770015
H       -0.000000     0.000000     0.033345
F        0.000000    -0.000000     0.966657
