[Molden Format]
[Title]
 Molden file created by orca_2mkl for BaseName=orca

[Atoms] AU
C    1   6          0.0000000000         0.0000000000         0.0000000000
O    2   8          0.0000000000         0.0000000000         2.1342566957
[GTO]
  1 0
s   8 1.0
     6665.0000000000         0.3635842998
     1000.0000000000         0.6749857928
      228.0000000000         1.1316199410
       64.7100000000         1.6530092121
       21.0600000000         1.9238206437
        7.4950000000         1.4472783162
        2.7970000000         0.4391631292
        0.5215000000         0.0066458037
s   8 1.0
     6665.0000000000        -0.1541797483
     1000.0000000000        -0.2937853735
      228.0000000000        -0.4808958038
       64.7100000000        -0.7614343161
       21.0600000000        -0.9001038923
        7.4950000000        -0.9726113518
        2.7970000000        -0.3940419460
        0.5215000000         0.4783944249
s   1 1.0
        0.1596000000         0.1799636353
p   3 1.0
        9.4390000000         1.3437371095
        2.0020000000         1.0631680879
        0.5456000000         0.5082318338
p   1 1.0
        0.1517000000         0.1349497436
d   1 1.0
        0.5500000000         1.0013935509

  2 0
s   8 1.0
    11720.0000000000         0.5697017158
     1759.0000000000         1.0583521000
      400.8000000000         1.7762810558
      113.7000000000         2.5994118899
       37.0300000000         3.0268459958
       13.2700000000         2.2223943344
        5.0250000000         0.6477954310
        1.0130000000         0.0111186960
s   8 1.0
    11720.0000000000        -0.2524342625
     1759.0000000000        -0.4804910908
      400.8000000000        -0.7862996613
      113.7000000000        -1.2541699039
       37.0300000000        -1.4912179216
       13.2700000000        -1.6108317779
        5.0250000000        -0.5497983753
        1.0130000000         0.7882822080
s   1 1.0
        0.3023000000         0.2905619240
p   3 1.0
       17.7000000000         3.2436193456
        3.8540000000         2.5672796523
        1.0460000000         1.1176693232
p   1 1.0
        0.2753000000         0.2842482844
d   1 1.0
        1.1850000000         3.8368709885

[5D]
[7F]
[9G]
[MO]
 Sym=     1a
 Ene= -2.06825773992200E+01
 Spin= Alpha
 Occup= 2.000000
  1       0.000088982979
  2      -0.000032219725
  3       0.001866749368
  4       0.000000000000
  5       0.000000000000
  6      -0.000278420290
  7      -0.000000000000
  8       0.000000000000
  9       0.001173029124
 10      -0.000573774852
 11       0.000000000000
 12       0.000000000000
 13       0.000000000000
 14       0.000000000000
 15       1.001170878841
 16       0.001634011246
 17      -0.004921620779
 18       0.000000000000
 19      -0.000000000000
 20      -0.001764414690
 21       0.000000000000
 22      -0.000000000000
 23       0.001269178201
 24       0.000398663203
 25       0.000000000000
 26       0.000000000000
 27       0.000000000000
 28       0.000000000000
 Sym=     1a
 Ene= -1.13247458795233E+01
 Spin= Alpha
 Occup= 2.000000
  1      -1.001305499334
  2      -0.002097131506
  3       0.000616063086
  4       0.000000000000
  5       0.000000000000
  6      -0.003833470164
  7       0.000000000000
  8       0.000000000000
  9      -0.000950333266
 10      -0.001911917770
 11       0.000000000000
 12       0.000000000000
 13       0.000000000000
 14       0.000000000000
 15       0.000375331666
 16      -0.000662379057
 17       0.003969834796
 18      -0.000000000000
 19       0.000000000000
 20       0.000317302094
 21      -0.000000000000
 22      -0.000000000000
 23      -0.002523813006
 24      -0.000055644753
 25       0.000000000000
 26       0.000000000000
 27      -0.000000000000
 28      -0.000000000000
 Sym=     1a
 Ene= -1.46702983288926E+00
 Spin= Alpha
 Occup= 1.984262
  1      -0.017910012598
  2       0.165456510959
  3       0.112908633878
  4      -0.000000000000
  5      -0.000000000000
  6       0.121588393458
  7      -0.000000000000
  8      -0.000000000000
  9       0.008770034948
 10       0.033361340302
 11      -0.000000000000
 12      -0.000000000000
 13      -0.000000000000
 14       0.000000000000
 15      -0.005924471158
 16       0.464606611171
 17       0.417208091399
 18      -0.000000000000
 19      -0.000000000000
 20      -0.006199562586
 21       0.000000000000
 22      -0.000000000000
 23       0.061695834960
 24       0.010695887015
 25      -0.000000000000
 26       0.000000000000
 27      -0.000000000000
 28      -0.000000000000
 Sym=     1a
 Ene= -8.32975998050966E-01
 Spin= Alpha
 Occup= 1.968589
  1      -0.006031058450
  2      -0.251101981754
  3       0.023863594321
  4      -0.000000000000
  5       0.000000000000
  6      -0.299899851261
  7      -0.000000000000
  8       0.000000000000
  9      -0.004985330996
 10      -0.032746473099
 11      -0.000000000000
 12       0.000000000000
 13      -0.000000000000
 14       0.000000000000
 15       0.004546199334
 16       0.094743982861
 17       0.249986498916
 18      -0.000000000000
 19       0.000000000000
 20       0.574153730590
 21      -0.000000000000
 22       0.000000000000
 23       0.293827188460
 24      -0.030259788263
 25       0.000000000000
 26      -0.000000000000
 27      -0.000000000000
 28       0.000000000000
 Sym=     1a
 Ene= -6.24894079946178E-01
 Spin= Alpha
 Occup= 1.935996
  1      -0.000000000000
  2       0.000000000000
  3       0.000000000000
  4       0.316266071766
  5       0.019671499608
  6      -0.000000000000
  7       0.140482219575
  8       0.008737882985
  9      -0.000000000000
 10      -0.000000000000
 11       0.059623514617
 12       0.003708535468
 13      -0.000000000000
 14       0.000000000000
 15      -0.000000000000
 16      -0.000000000000
 17      -0.000000000000
 18       0.549067467834
 19       0.034151562378
 20       0.000000000000
 21       0.333810097834
 22       0.020762724158
 23       0.000000000000
 24      -0.000000000000
 25      -0.027947275570
 26      -0.001738298444
 27      -0.000000000000
 28       0.000000000000
 Sym=     1a
 Ene= -6.24894212738465E-01
 Spin= Alpha
 Occup= 1.935996
  1       0.000000000000
  2      -0.000000000000
  3      -0.000000000000
  4      -0.019671499608
  5       0.316266071766
  6       0.000000000000
  7      -0.008737882985
  8       0.140482219575
  9       0.000000000000
 10       0.000000000000
 11      -0.003708535468
 12       0.059623514617
 13       0.000000000000
 14       0.000000000000
 15       0.000000000000
 16       0.000000000000
 17       0.000000000000
 18      -0.034151562378
 19       0.549067467834
 20      -0.000000000000
 21      -0.020762724158
 22       0.333810097834
 23      -0.000000000000
 24       0.000000000000
 25       0.001738298444
 26      -0.027947275570
 27       0.000000000000
 28      -0.000000000000
 Sym=     1a
 Ene= -5.39762363843892E-01
 Spin= Alpha
 Occup= 1.940500
  1       0.004139411276
  2      -0.361582453801
  3      -0.611127522905
  4       0.000000000000
  5      -0.000000000000
  6       0.386438373404
  7       0.000000000000
  8      -0.000000000000
  9       0.157578289444
 10       0.031887566706
 11       0.000000000000
 12      -0.000000000000
 13       0.000000000000
 14      -0.000000000000
 15       0.002486960519
 16       0.125622519839
 17       0.150390333002
 18       0.000000000000
 19      -0.000000000000
 20      -0.104265678379
 21       0.000000000000
 22      -0.000000000000
 23      -0.071255665169
 24       0.006625334959
 25      -0.000000000000
 26       0.000000000000
 27       0.000000000000
 28       0.000000000000
 Sym=     1a
 Ene= 2.95288871682735E-01
 Spin= Alpha
 Occup= 0.067067
  1      -0.000000000000
  2       0.000000000000
  3       0.000000000000
  4       0.562436766464
  5       0.374949143468
  6      -0.000000000000
  7       0.222350020600
  8       0.148229907334
  9       0.000000000000
 10       0.000000000000
 11      -0.023023444887
 12      -0.015348607087
 13       0.000000000000
 14      -0.000000000000
 15      -0.000000000000
 16      -0.000000000000
 17      -0.000000000000
 18      -0.533965873695
 19      -0.355968988731
 20      -0.000000000000
 21      -0.028441493958
 22      -0.018960555985
 23       0.000000000000
 24       0.000000000000
 25      -0.036039040549
 26      -0.024025469513
 27       0.000000000000
 28       0.000000000000
 Sym=     1a
 Ene= 2.95288873099330E-01
 Spin= Alpha
 Occup= 0.067067
  1       0.000000000000
  2       0.000000000000
  3      -0.000000000000
  4       0.374949143468
  5      -0.562436766464
  6       0.000000000000
  7       0.148229907334
  8      -0.222350020600
  9      -0.000000000000
 10      -0.000000000000
 11      -0.015348607087
 12       0.023023444887
 13      -0.000000000000
 14      -0.000000000000
 15       0.000000000000
 16       0.000000000000
 17       0.000000000000
 18      -0.355968988731
 19       0.533965873695
 20       0.000000000000
 21      -0.018960555985
 22       0.028441493958
 23      -0.000000000000
 24       0.000000000000
 25      -0.024025469513
 26       0.036039040549
 27       0.000000000000
 28      -0.000000000000
 Sym=     1a
 Ene= 1.08892695175318E+00
 Spin= Alpha
 Occup= 0.023462
  1       0.082149577711
  2       0.374739178788
  3       0.208643721189
  4      -0.000000000000
  5       0.000000000000
  6       0.878564997237
  7       0.000000000000
  8      -0.000000000000
  9       0.094183300048
 10      -0.058082163772
 11       0.000000000000
 12      -0.000000000000
 13      -0.000000000000
 14      -0.000000000000
 15      -0.129041862212
 16      -0.450301314605
 17      -0.261110055523
 18      -0.000000000000
 19      -0.000000000000
 20       0.817785059080
 21      -0.000000000000
 22       0.000000000000
 23      -0.064740939256
 24       0.067696494545
 25       0.000000000000
 26      -0.000000000000
 27       0.000000000000
 28      -0.000000000000
 Sym=     1a
 Ene= 1.01841914881987E+00
 Spin= Alpha
 Occup= 0.012284
  1       0.301754053622
  2       0.779941531973
  3      -0.963350725886
  4      -0.000000000000
  5       0.000000000000
  6      -0.216895136274
  7       0.000000000000
  8      -0.000000000000
  9       0.051702818638
 10       0.084741436097
 11       0.000000000000
 12      -0.000000000000
 13      -0.000000000000
 14       0.000000000000
 15       0.355423999608
 16       0.920744996808
 17      -0.662761098800
 18       0.000000000000
 19       0.000000000000
 20       0.499981269815
 21      -0.000000000000
 22      -0.000000000000
 23      -0.586460155993
 24       0.018960955506
 25       0.000000000000
 26      -0.000000000000
 27      -0.000000000000
 28       0.000000000000
 Sym=     1a
 Ene= 9.49149019802989E-01
 Spin= Alpha
 Occup= 0.008606
  1      -0.433016253206
  2      -1.106176042049
  3       1.204953141607
  4       0.000000000000
  5      -0.000000000000
  6       0.440072275851
  7      -0.000000000000
  8       0.000000000000
  9      -0.437409181662
 10      -0.023848299592
 11       0.000000000000
 12       0.000000000000
 13      -0.000000000000
 14       0.000000000000
 15       0.331382450913
 16       0.817431141704
 17      -0.898610391815
 18       0.000000000000
 19      -0.000000000000
 20       0.174227006722
 21      -0.000000000000
 22      -0.000000000000
 23      -0.192878183031
 24      -0.048025507060
 25      -0.000000000000
 26       0.000000000000
 27      -0.000000000000
 28       0.000000000000
 Sym=     1a
 Ene= 1.28065530025798E+00
 Spin= Alpha
 Occup= 0.007493
  1      -0.000000000000
  2      -0.000000000000
  3       0.000000000000
  4       0.190292611105
  5       0.381252456345
  6       0.000000000000
  7      -0.018910796380
  8      -0.037887900794
  9       0.000000000000
 10       0.000000000000
 11      -0.244308323440
 12      -0.489473279473
 13      -0.000000000000
 14      -0.000000000000
 15      -0.000000000000
 16      -0.000000000000
 17       0.000000000000
 18       0.335615865603
 19       0.672408520785
 20      -0.000000000000
 21      -0.335800340413
 22      -0.672778117240
 23      -0.000000000000
 24      -0.000000000000
 25       0.001224273077
 26       0.002452838895
 27       0.000000000000
 28      -0.000000000000
 Sym=     1a
 Ene= 1.28065530469789E+00
 Spin= Alpha
 Occup= 0.007493
  1      -0.000000000000
  2      -0.000000000000
  3      -0.000000000000
  4      -0.381252456345
  5       0.190292611105
  6      -0.000000000000
  7       0.037887900794
  8      -0.018910796380
  9      -0.000000000000
 10      -0.000000000000
 11       0.489473279473
 12      -0.244308323440
 13       0.000000000000
 14      -0.000000000000
 15      -0.000000000000
 16      -0.000000000000
 17       0.000000000000
 18      -0.672408520785
 19       0.335615865603
 20      -0.000000000000
 21       0.672778117239
 22      -0.335800340413
 23      -0.000000000000
 24      -0.000000000000
 25      -0.002452838895
 26       0.001224273077
 27       0.000000000000
 28      -0.000000000000
 Sym=     1a
 Ene= 1.51895736660734E+00
 Spin= Alpha
 Occup= 0.006490
  1       0.189857558742
  2       0.402252584462
  3       0.224265123471
  4       0.000000000000
  5      -0.000000000000
  6       0.378818389402
  7      -0.000000000000
  8       0.000000000000
  9      -0.258875332698
 10       0.348346718529
 11       0.000000000000
 12      -0.000000000000
 13       0.000000000000
 14       0.000000000000
 15       0.069626865864
 16       0.148150376716
 17      -0.584577781827
 18      -0.000000000000
 19       0.000000000000
 20      -0.123875795727
 21      -0.000000000000
 22       0.000000000000
 23       0.823383980428
 24       0.579139980025
 25      -0.000000000000
 26       0.000000000000
 27       0.000000000000
 28       0.000000000000
 Sym=     1a
 Ene= 1.62912605613567E+00
 Spin= Alpha
 Occup= 0.006295
  1      -0.000000000000
  2      -0.000000000000
  3       0.000000000000
  4       0.020650639616
  5      -0.266665164189
  6      -0.000000000000
  7      -0.015344650696
  8       0.198148041581
  9       0.000000000000
 10      -0.000000000000
 11       0.040432766476
 12      -0.522115077864
 13       0.000000000000
 14       0.000000000000
 15      -0.000000000000
 16      -0.000000000000
 17       0.000000000000
 18       0.013066839664
 19      -0.168734286652
 20       0.000000000000
 21      -0.040949123884
 22       0.528782887465
 23      -0.000000000000
 24      -0.000000000000
 25      -0.045034833320
 26       0.581542336950
 27       0.000000000000
 28       0.000000000000
 Sym=     1a
 Ene= 1.62912601521135E+00
 Spin= Alpha
 Occup= 0.006295
  1      -0.000000000000
  2      -0.000000000000
  3      -0.000000000000
  4       0.266665164189
  5       0.020650639616
  6      -0.000000000000
  7      -0.198148041581
  8      -0.015344650696
  9       0.000000000000
 10      -0.000000000000
 11       0.522115077864
 12       0.040432766476
 13       0.000000000000
 14       0.000000000000
 15      -0.000000000000
 16      -0.000000000000
 17       0.000000000000
 18       0.168734286652
 19       0.013066839664
 20       0.000000000000
 21      -0.528782887465
 22      -0.040949123884
 23      -0.000000000000
 24      -0.000000000000
 25      -0.581542336950
 26      -0.045034833320
 27       0.000000000000
 28       0.000000000000
 Sym=     1a
 Ene= 2.08911432341056E+00
 Spin= Alpha
 Occup= 0.004873
  1      -0.000000000000
  2      -0.000000000000
  3      -0.000000000000
  4      -0.000000000000
  5      -0.000000000000
  6      -0.000000000000
  7      -0.000000000000
  8       0.000000000000
  9       0.000000000000
 10      -0.000000000000
 11      -0.000000000000
 12       0.000000000000
 13       0.552650520738
 14       0.035155595069
 15       0.000000000000
 16       0.000000000000
 17       0.000000000000
 18      -0.000000000000
 19       0.000000000000
 20       0.000000000000
 21       0.000000000000
 22      -0.000000000000
 23      -0.000000000000
 24      -0.000000000000
 25       0.000000000000
 26      -0.000000000000
 27       0.756979943618
 28       0.048153542564
 Sym=     1a
 Ene= 2.08911435022325E+00
 Spin= Alpha
 Occup= 0.004873
  1       0.000000000000
  2       0.000000000000
  3      -0.000000000000
  4       0.000000000000
  5       0.000000000000
  6       0.000000000000
  7      -0.000000000000
  8       0.000000000000
  9      -0.000000000000
 10       0.000000000000
 11      -0.000000000000
 12       0.000000000000
 13      -0.035155595069
 14       0.552650520738
 15      -0.000000000000
 16      -0.000000000000
 17       0.000000000000
 18      -0.000000000000
 19       0.000000000000
 20       0.000000000000
 21       0.000000000000
 22      -0.000000000000
 23      -0.000000000000
 24      -0.000000000000
 25       0.000000000000
 26      -0.000000000000
 27      -0.048153542564
 28       0.756979943618
 Sym=     1a
 Ene= 2.28820391332450E+00
 Spin= Alpha
 Occup= 0.002162
  1      -0.006806091985
  2      -0.116820676782
  3       0.043743759164
  4      -0.000000000000
  5       0.000000000000
  6      -0.470993070720
  7       0.000000000000
  8       0.000000000000
  9       0.125950090418
 10      -1.189369404273
 11      -0.000000000000
 12      -0.000000000000
 13       0.000000000000
 14      -0.000000000000
 15       0.491004881873
 16       1.041070146983
 17      -0.430487914857
 18       0.000000000000
 19       0.000000000000
 20      -0.671442906189
 21      -0.000000000000
 22      -0.000000000000
 23       0.341382550256
 24       0.421114727785
 25      -0.000000000000
 26      -0.000000000000
 27      -0.000000000000
 28       0.000000000000
 Sym=     1a
 Ene= 2.18760512199359E+00
 Spin= Alpha
 Occup= 0.002016
  1       0.000000000000
  2       0.000000000000
  3       0.000000000000
  4      -0.000000000000
  5      -0.000000000000
  6       0.000000000000
  7       0.000000000000
  8       0.000000000000
  9       0.000000000000
 10       0.000000000000
 11      -0.000000000000
 12      -0.000000000000
 13       0.821878152551
 14       0.194900707754
 15      -0.000000000000
 16      -0.000000000000
 17      -0.000000000000
 18       0.000000000000
 19       0.000000000000
 20       0.000000000000
 21       0.000000000000
 22      -0.000000000000
 23       0.000000000000
 24      -0.000000000000
 25      -0.000000000000
 26      -0.000000000000
 27      -0.648929662980
 28      -0.153887592954
 Sym=     1a
 Ene= 2.18760517348661E+00
 Spin= Alpha
 Occup= 0.002016
  1      -0.000000000000
  2      -0.000000000000
  3      -0.000000000000
  4       0.000000000000
  5       0.000000000000
  6      -0.000000000000
  7      -0.000000000000
  8      -0.000000000000
  9       0.000000000000
 10      -0.000000000000
 11       0.000000000000
 12       0.000000000000
 13      -0.194900707754
 14       0.821878152551
 15       0.000000000000
 16       0.000000000000
 17       0.000000000000
 18      -0.000000000000
 19      -0.000000000000
 20      -0.000000000000
 21      -0.000000000000
 22      -0.000000000000
 23      -0.000000000000
 24       0.000000000000
 25       0.000000000000
 26       0.000000000000
 27       0.153887592954
 28      -0.648929662980
 Sym=     1a
 Ene= 2.42245839102216E+00
 Spin= Alpha
 Occup= 0.001732
  1      -0.000000000000
  2      -0.000000000000
  3      -0.000000000000
  4      -0.230778215612
  5      -0.693372755558
  6      -0.000000000000
  7       0.167189767321
  8       0.502321371022
  9      -0.000000000000
 10       0.000000000000
 11      -0.218109164302
 12      -0.655308612485
 13      -0.000000000000
 14       0.000000000000
 15      -0.000000000000
 16      -0.000000000000
 17       0.000000000000
 18       0.025723504710
 19       0.077286226068
 20       0.000000000000
 21       0.071101434403
 22       0.213624138506
 23      -0.000000000000
 24       0.000000000000
 25      -0.271496729615
 26      -0.815711461494
 27       0.000000000000
 28      -0.000000000000
 Sym=     1a
 Ene= 2.42245837344819E+00
 Spin= Alpha
 Occup= 0.001732
  1       0.000000000000
  2       0.000000000000
  3      -0.000000000000
  4      -0.693372755558
  5       0.230778215612
  6       0.000000000000
  7       0.502321371022
  8      -0.167189767321
  9      -0.000000000000
 10      -0.000000000000
 11      -0.655308612485
 12       0.218109164302
 13      -0.000000000000
 14       0.000000000000
 15      -0.000000000000
 16      -0.000000000000
 17       0.000000000000
 18       0.077286226068
 19      -0.025723504710
 20      -0.000000000000
 21       0.213624138506
 22      -0.071101434403
 23      -0.000000000000
 24      -0.000000000000
 25      -0.815711461494
 26       0.271496729615
 27       0.000000000000
 28      -0.000000000000
 Sym=     1a
 Ene= 2.88648905455712E+00
 Spin= Alpha
 Occup= 0.001024
  1       0.687102392565
  2       1.399432586319
  3      -0.126725421475
  4       0.000000000000
  5      -0.000000000000
  6       1.018123936883
  7      -0.000000000000
  8       0.000000000000
  9      -0.470848520039
 10      -0.126326750561
 11      -0.000000000000
 12      -0.000000000000
 13      -0.000000000000
 14       0.000000000000
 15       0.231915062449
 16       0.422442880259
 17      -0.945625777889
 18      -0.000000000000
 19      -0.000000000000
 20      -0.123235636610
 21       0.000000000000
 22       0.000000000000
 23       1.327330894759
 24      -0.933914323654
 25       0.000000000000
 26      -0.000000000000
 27       0.000000000000
 28      -0.000000000000
 Sym=     1a
 Ene= 1.38838343088207E+00
 Spin= Alpha
 Occup= 0.000720
  1      -0.000000000000
  2      -0.000000000000
  3      -0.000000000000
  4       0.329307136904
  5      -0.055574324556
  6      -0.000000000000
  7      -1.277544520933
  8       0.215600167394
  9      -0.000000000000
 10      -0.000000000000
 11      -0.742432138137
 12       0.125293866975
 13      -0.000000000000
 14      -0.000000000000
 15      -0.000000000000
 16      -0.000000000000
 17       0.000000000000
 18      -0.269892975343
 19       0.045547509076
 20       0.000000000000
 21       1.224623237391
 22      -0.206669098923
 23      -0.000000000000
 24       0.000000000000
 25      -0.452826517583
 26       0.076419624828
 27      -0.000000000000
 28      -0.000000000000
 Sym=     1a
 Ene= 1.38838342658973E+00
 Spin= Alpha
 Occup= 0.000720
  1      -0.000000000000
  2      -0.000000000000
  3      -0.000000000000
  4       0.055574324556
  5       0.329307136904
  6      -0.000000000000
  7      -0.215600167394
  8      -1.277544520933
  9      -0.000000000000
 10      -0.000000000000
 11      -0.125293866975
 12      -0.742432138137
 13       0.000000000000
 14       0.000000000000
 15      -0.000000000000
 16      -0.000000000000
 17       0.000000000000
 18      -0.045547509076
 19      -0.269892975343
 20      -0.000000000000
 21       0.206669098923
 22       1.224623237391
 23      -0.000000000000
 24       0.000000000000
 25      -0.076419624828
 26      -0.452826517583
 27      -0.000000000000
 28       0.000000000000
 Sym=     1a
 Ene= 1.57415026258365E+00
 Spin= Alpha
 Occup= 0.000238
  1       0.257085957198
  2       0.519700155532
  3       2.844682425473
  4       0.000000000000
  5       0.000000000000
  6       0.702870578811
  7      -0.000000000000
  8      -0.000000000000
  9       2.278027985968
 10       0.830702364840
 11      -0.000000000000
 12      -0.000000000000
 13      -0.000000000000
 14      -0.000000000000
 15       0.585850027290
 16       1.126258471433
 17      -4.766462459945
 18      -0.000000000000
 19       0.000000000000
 20       0.209711418187
 21       0.000000000000
 22       0.000000000000
 23       1.607107386315
 24      -0.386246221449
 25      -0.000000000000
 26      -0.000000000000
 27       0.000000000000
 28       0.000000000000
