[Molden Format]
made by pyscf v[2.3.0]
[Atoms] (AU)
C   1   6     0.00000000000000     0.00000000000000     0.00000000000000
O   2   8     0.00000000000000     0.00000000000000     2.13425668508378
[GTO]
1 0
 s    8 1.00
                  6665  0.00069158396281299
                  1000  0.0053257961529341
                   228   0.027060721042034
                 64.71    0.10165684614077
                 21.06     0.2745748236174
                 7.495    0.44829431892377
                 2.797    0.28490261071525
                0.5215   0.015194859206082
 s    8 1.00
                  6665  -0.00029326965268655
                  1000  -0.0023180354739745
                   228  -0.011499786038565
                 64.71  -0.046826727009787
                 21.06   -0.12846616875047
                 7.495   -0.30126627246289
                 2.797   -0.25563070233011
                0.5215      1.093793361012
 s    1 1.00
                0.1596                   1
 p    3 1.00
                 9.439   0.056979251590039
                 2.002    0.31320721150073
                0.5456    0.76037674173753
 p    1 1.00
                0.1517                   1
 d    1 1.00
                  0.55                   1

2 0
 s    8 1.00
                 11720  0.00070964594651845
                  1759  0.0054672722921914
                 400.8   0.027823118610189
                 113.7    0.10474773971146
                 37.03    0.28292084635691
                 13.27    0.44849523869833
                 5.025    0.27081688521277
                 1.013    0.01545029160744
 s    8 1.00
                 11720  -0.00031444341168873
                  1759  -0.0024821376810179
                 400.8  -0.012316355381583
                 113.7  -0.050538917343672
                 37.03   -0.13938490331632
                 13.27   -0.32507749481778
                 5.025   -0.22984830758785
                 1.013     1.0953793467883
 s    1 1.00
                0.3023                   1
 p    3 1.00
                  17.7   0.062679166281506
                 3.854    0.33353656587936
                 1.046    0.74123964163973
 p    1 1.00
                0.2753                   1
 d    1 1.00
                 1.185                   1

[5d]
[7f]
[9g]

[MO]
 Sym= A
 Ene=               0
 Spin= Alpha
 Occup=    2.00000
   1      -1.0013053529823
   2    -0.0020971203065614
   3    0.00061486337232647
   4    3.8585295923382e-18
   5    -2.2242576127086e-18
   6    -0.0038332941723185
   7    8.8942733967103e-20
   8    5.4062027219739e-19
   9    -0.00095108754369485
  10    -0.0019115550017141
  11    1.8695694106832e-18
  12    6.4683179156836e-19
  13    9.7709577727814e-19
  14    1.938502810419e-18
  15    -0.00026754935343308
  16    -0.00066342497855526
  17    0.0039729990796222
  18    2.5122479481141e-18
  19    -1.0237370377796e-18
  20    0.00031843254447149
  21    1.7359396436726e-18
  22    -4.2104010491362e-19
  23    -0.0025246300913443
  24    -5.5901087251145e-05
  25    2.1428262654643e-19
  26    1.7697538398455e-20
  27    -1.4762512712703e-19
  28    -8.5013485453444e-20
 Sym= A
 Ene=               0
 Spin= Alpha
 Occup=    2.00000
   1    0.00055398581884648
   2    3.3566956996575e-05
   3    -0.0018671409385145
   4    -5.9088021139013e-16
   5    1.3669924320515e-16
   6    0.00028088394989542
   7    -2.2777593388839e-16
   8    2.0229120332882e-16
   9    -0.001172415762825
  10    0.00057500525706399
  11    -1.1774120879065e-16
  12    8.0917480683738e-17
  13     1.10613354463e-19
  14    -1.7850869131074e-17
  15      -1.0011709110581
  16    -0.0016335778038425
  17    0.0049190614701536
  18    -1.0643034805752e-15
  19    3.6094555330999e-16
  20    0.0017642189256802
  21    -6.2930471034657e-16
  22    1.6381202813975e-16
  23    -0.0012675585617943
  24    -0.00039862585141845
  25    5.3011082548877e-17
  26    -1.5053550774234e-17
  27    -1.4970716460104e-18
  28    -1.1950844839697e-18
 Sym= A
 Ene=               0
 Spin= Alpha
 Occup=    1.98433
   1    -0.018156728947745
   2      0.16400459393679
   3      0.11270507847864
   4    -1.2822352963864e-16
   5    1.3240820039691e-15
   6      0.12096731225249
   7    -1.3015418196463e-17
   8    6.8120918711941e-16
   9    0.0089665347417186
  10     0.033315553299084
  11    -1.9219413283702e-17
  12    2.4776339484585e-16
  13    6.1772240506284e-16
  14    2.870891229446e-16
  15    -0.0056933730672654
  16      0.46549629720022
  17      0.41746725725796
  18    -2.1656766765577e-16
  19    2.3885449520119e-15
  20    -0.0057804988195467
  21    -1.8065999166632e-16
  22    1.4193087156717e-15
  23     0.061948820159088
  24     0.010608012113408
  25    -1.813537283789e-18
  26    -1.3135169017422e-16
  27    -2.9008849276421e-15
  28    -1.8002555893531e-15
 Sym= A
 Ene=               0
 Spin= Alpha
 Occup=    1.96871
   1    0.0058604203648006
   2      0.25145050923481
   3    -0.023450586483511
   4    -5.4579677187203e-15
   5    2.9683866711394e-15
   6      0.29893820546988
   7    -2.7215503088517e-15
   8    8.8451515822804e-16
   9    0.0044716771369844
  10     0.032318767585129
  11    -9.6736242183647e-16
  12    5.4991585913446e-16
  13    -2.9616955756804e-16
  14    7.7714360797951e-17
  15    -0.0045035386281007
  16    -0.093938484110732
  17     -0.24860631613508
  18    -8.7936343545106e-15
  19    4.9644725703299e-15
  20     -0.57448579543316
  21    -5.4342382976719e-15
  22    3.1502204295168e-15
  23      -0.2940221772775
  24     0.030252665445875
  25    5.1716119086851e-16
  26    -2.2008096763876e-16
  27    1.7763945984299e-15
  28    1.0921271895703e-15
 Sym= A
 Ene=               0
 Spin= Alpha
 Occup=    1.94075
   1    0.0044876170233928
   2      -0.3608933860795
   3     -0.61463156726816
   4    -4.1599791624958e-15
   5    -8.0067629301436e-15
   6       0.3844795339154
   7    -1.6080045747211e-15
   8    -3.2149750151106e-15
   9      0.15626577067359
  10     0.032383924523783
  11    -9.4089216532441e-16
  12    -1.6080754230317e-15
  13    3.0805301822164e-16
  14    5.707792538863e-16
  15    0.0026382126750524
  16      0.12596751077729
  17      0.15192817678951
  18    -6.8633103046779e-15
  19    -1.3801935177859e-14
  20     -0.10605206811751
  21    -4.2131998700196e-15
  22    -8.4762432000068e-15
  23     -0.07282009491056
  24    0.0065626374295234
  25    4.1547363572924e-16
  26    7.0202071907899e-16
  27    -8.4006277181078e-17
  28    2.1501708551057e-17
 Sym= A
 Ene=               0
 Spin= Alpha
 Occup=    1.93619
   1    3.1228434232771e-16
   2    -9.6621260910721e-15
   3    -1.8290771862299e-14
   4      0.18744707239675
   5      0.25747996395713
   6    1.0879512139213e-14
   7     0.082830633475949
   8      0.11378641112519
   9    3.6049176336308e-15
  10     1.14539667531e-15
  11     0.034451774762587
  12     0.047315192312742
  13    8.5914486914008e-17
  14    -2.0058459187157e-17
  15    -3.7859093885603e-16
  16    1.7999290567019e-15
  17    2.9630211501995e-15
  18      0.32433355218653
  19      0.44545446212211
  20    -4.244784847961e-15
  21      0.19604039793355
  22      0.26924657589805
  23    -3.1355746663793e-15
  24    3.6858345903196e-16
  25    -0.016334497760313
  26    -0.022432942283017
  27    -1.4474124546032e-16
  28    -3.2096561080928e-17
 Sym= A
 Ene=               0
 Spin= Alpha
 Occup=    1.93619
   1    -1.8612272261107e-16
   2    -7.0829496223128e-15
   3    -2.5198169839183e-15
   4     -0.25747996395713
   5      0.18744707239675
   6    -4.2594964768132e-15
   7     -0.11378641112519
   8     0.082830633475949
   9    8.1343456535244e-16
  10    -7.1985278934778e-16
  11    -0.047315192312742
  12     0.034451774762587
  13    1.2632416548767e-16
  14    -3.1948362472806e-16
  15    1.8733589555598e-15
  16    6.6864457536713e-16
  17    4.4794718584272e-15
  18     -0.44545446212211
  19      0.32433355218653
  20    1.0346187817428e-14
  21     -0.26924657589805
  22      0.19604039793355
  23    4.807306624368e-15
  24    -5.3709763638507e-16
  25     0.022432942283017
  26    -0.016334497760313
  27    -3.7773173275614e-17
  28    7.1897394935585e-17
 Sym= A
 Ene=               0
 Spin= Alpha
 Occup=    0.06692
   1    -7.1140739914784e-16
   2    -1.5915850473883e-15
   3    1.0666371071673e-14
   4      0.54763936220851
   5      0.42104615546629
   6    3.5572669745943e-15
   7      0.22204894145718
   8      0.17081213210945
   9    6.0148174581476e-15
  10    -3.2946374831468e-15
  11    -0.021402156376923
  12    -0.016459706689152
  13    1.7889765129001e-16
  14    -1.687690335866e-15
  15    1.3335771596403e-15
  16    9.7922241613813e-16
  17    -9.992952306509e-15
  18     -0.48472210855414
  19     -0.37271434577849
  20    -4.9193766102378e-16
  21     -0.06644790564927
  22     -0.05107910694652
  23    4.765587628453e-15
  24    -4.9002508364153e-16
  25    -0.028800335879261
  26    -0.022137539686039
  27    -2.8425958291375e-16
  28    -6.8903161404601e-17
 Sym= A
 Ene=               0
 Spin= Alpha
 Occup=    0.06692
   1    -9.1567575853843e-16
   2    -2.1195771046456e-15
   3    2.2525866243396e-15
   4      0.42104615546628
   5     -0.54763936220851
   6    -4.0549668903218e-16
   7      0.17081213210944
   8     -0.22204894145718
   9    7.7730525452376e-16
  10    6.0601853244316e-16
  11    -0.016459706689154
  12     0.021402156376917
  13    4.2081866216431e-16
  14    3.239448218632e-15
  15    -3.1663879199466e-16
  16    -9.1774605067787e-16
  17    -1.2746354125629e-16
  18      -0.3727143457785
  19      0.48472210855415
  20    -1.1058708877001e-15
  21    -0.051079106946503
  22      0.06644790564927
  23    4.3424303229794e-16
  24    1.4299669766676e-15
  25    -0.022137539686046
  26     0.028800335879257
  27    -5.4150938059725e-16
  28    -2.1230538067597e-16
 Sym= A
 Ene=               0
 Spin= Alpha
 Occup=    0.02335
   1     0.087637083314764
   2      0.38284519454807
   3      0.22074469416601
   4    2.5571617845347e-16
   5    -1.0953828371137e-15
   6      0.88344358936824
   7    -3.8409137652647e-15
   8    -1.4542209118636e-15
   9      0.10137324887027
  10     -0.07680632575471
  11    -1.0678974553781e-15
  12    -1.326716128656e-15
  13    3.4390565628485e-16
  14    4.7392099850512e-16
  15     -0.12017602561572
  16     -0.43342917182625
  17     -0.28535845354279
  18    2.5890912103746e-15
  19    2.6740404080953e-15
  20      0.80215566148297
  21    8.6906842384723e-16
  22    -9.0852217014795e-17
  23    -0.038617483716168
  24     0.063435405344724
  25    2.1407077846272e-16
  26    1.6155260627806e-16
  27    -5.242420397962e-16
  28    -2.1896525079246e-16
 Sym= A
 Ene=               0
 Spin= Alpha
 Occup=    0.01223
   1     -0.32102456000181
   2     -0.83080764906958
   3       1.0533578769187
   4    -4.9720906156595e-15
   5    -2.7102279509577e-15
   6      0.23479128143007
   7    -1.6303512534564e-15
   8    3.3282644637373e-15
   9    -0.037833098535075
  10    -0.072654314472763
  11    5.7534575387591e-15
  12    -8.1742586070192e-15
  13    1.0604979416487e-16
  14    1.0573214954584e-15
  15     -0.33254952257992
  16      -0.8668171190134
  17      0.56305732629076
  18    -3.7990995922315e-15
  19    4.6544154399008e-15
  20     -0.49455449411573
  21    5.9403060881178e-15
  22    -1.0537491573465e-15
  23      0.59413500656192
  24    -0.019839092112388
  25    -1.4312717496863e-15
  26    1.2427690856039e-15
  27    2.4554135519268e-15
  28    1.8289565024694e-15
 Sym= A
 Ene=               0
 Spin= Alpha
 Occup=    0.00859
   1      0.42031607777593
   2       1.0708802947701
   3      -1.1521212976588
   4    2.9360616976028e-15
   5    -3.2355208450712e-14
   6     -0.43618719512498
   7     2.76607947256e-16
   8    2.0504703985599e-14
   9      0.44766214483735
  10    0.0039541462055022
  11    1.7721732752665e-14
  12    -5.4579148431156e-15
  13    7.8595934843446e-16
  14    9.1301080431855e-16
  15     -0.33759065554144
  16     -0.83801297222639
  17      0.90511371334049
  18    4.0741518078295e-15
  19    -2.8067409999793e-14
  20     -0.20431195360756
  21    -1.6965754002106e-14
  22    3.8962273374441e-14
  23      0.22404406827273
  24     0.038598506661664
  25    -1.9892471850339e-14
  26    9.3339795995464e-15
  27    3.1752734408982e-15
  28    2.4054637875538e-15
 Sym= A
 Ene=               0
 Spin= Alpha
 Occup=    0.00744
   1    1.631169558484e-14
   2    3.8387594354767e-14
   3    -5.307212657014e-14
   4      0.25373040770464
   5      0.38279078948295
   6    -1.3872283530152e-14
   7    -0.043528128307835
   8    -0.065486061689574
   9    -3.364090969275e-15
  10    -1.4479353562271e-14
  11     -0.22604653216576
  12     -0.34143917392377
  13    -2.6217938208649e-14
  14    1.1804568487813e-14
  15    -8.872594177325e-15
  16    -2.1799694658579e-14
  17    4.7507306308296e-14
  18      0.43754002107072
  19       0.6604908717133
  20    -1.4273031124675e-14
  21     -0.47591876050105
  22     -0.71829909860966
  23    9.0772526206579e-15
  24    -5.0413329751437e-15
  25    -0.031892261901834
  26    -0.047975342803892
  27    -1.6624423308713e-14
  28    -3.8221001712741e-15
 Sym= A
 Ene=               0
 Spin= Alpha
 Occup=    0.00744
   1    -1.1467265041126e-14
   2    -3.0815400227614e-14
   3    3.7353173506749e-14
   4      0.38279078948298
   5     -0.25373040770473
   6    8.8294650667944e-15
   7    -0.065486061689581
   8     0.043528128307999
   9    -1.1214263290966e-14
  10    -9.5686756622342e-15
  11     -0.34143917392368
  12      0.22604653216569
  13    -1.0318652737978e-14
  14    -4.0571989485198e-15
  15    9.8205052998081e-15
  16    2.2264282839163e-14
  17    -2.2746596827238e-14
  18       0.6604908717133
  19      -0.4375400210707
  20    -8.1310824957232e-15
  21     -0.71829909860973
  22      0.47591876050103
  23    9.5156196056722e-15
  24    8.835364938624e-15
  25    -0.047975342803932
  26     0.031892261902007
  27    -6.996753960015e-15
  28    -3.992656163038e-15
 Sym= A
 Ene=               0
 Spin= Alpha
 Occup=    0.00648
   1      0.21474268738227
   2      0.45797205470135
   3      0.18635477991407
   4    6.408836492805e-17
   5    6.1450666592107e-15
   6      0.40397046302295
   7    -1.0442958232507e-15
   8    -1.6296491046466e-15
   9     -0.28007190540714
  10      0.35251924437973
  11    1.5140338281815e-15
  12    -7.1799864257826e-16
  13    3.2472572095032e-16
  14    -6.4212769169665e-16
  15     0.063541671737544
  16      0.13224819159154
  17     -0.56913938356865
  18    -5.5264784504618e-15
  19    4.5268113496309e-15
  20     -0.12178156204611
  21    5.6410008778901e-15
  22    -7.7202441151787e-15
  23      0.85005381823431
  24      0.55062855628626
  25    5.1604822917539e-15
  26    -1.8147991187037e-15
  27    -3.487768235047e-16
  28    -9.6650681990441e-16
 Sym= A
 Ene=               0
 Spin= Alpha
 Occup=    0.00625
   1    2.8087943406283e-14
   2    6.0613412200035e-14
   3    -6.538385244318e-14
   4     -0.22343155915525
   5    -4.0352363047367e-06
   6    -2.708568740289e-15
   7      0.22920379567697
   8    0.00014113396206383
   9    -2.1326726700885e-14
  10    -4.1855648626479e-14
  11     -0.62785644850504
  12    -9.2411043518358e-05
  13    -3.0550008717434e-14
  14    -5.6311194858545e-14
  15    3.8314588671214e-17
  16    -5.0692978241724e-15
  17    4.6155380005754e-14
  18     -0.03107425913477
  19    0.00018736951474558
  20    -2.9444081172185e-14
  21      0.38330381469836
  22    -0.00026440757388233
  23    3.544003541538e-14
  24    -1.5514903080977e-14
  25      0.54517199027721
  26    -0.00018138638539606
  27    -2.7710475714607e-14
  28    -4.0142113467385e-14
 Sym= A
 Ene=               0
 Spin= Alpha
 Occup=    0.00625
   1    2.3934624828394e-15
   2    1.0458575915477e-14
   3    -1.006226997738e-14
   4    -4.035236169595e-06
   5      0.22343155915522
   6    -1.3475275566483e-14
   7    0.00014113396197741
   8     -0.22920379567692
   9    2.7151169691518e-14
  10    1.553976189202e-14
  11    -9.2411043672935e-05
  12      0.62785644850508
  13    -1.9504912086177e-15
  14    2.3563075382976e-15
  15    -1.6559342859815e-14
  16    -3.9605079548372e-14
  17    2.260642154983e-14
  18    0.00018736951493685
  19     0.031074259134751
  20    1.0487535387717e-15
  21    -0.00026440757403851
  22     -0.38330381469838
  23    -2.5174027317654e-15
  24    3.166339516177e-15
  25    -0.00018138638544316
  26     -0.54517199027719
  27    -2.0090801753253e-15
  28    -7.8528255289269e-16
 Sym= A
 Ene=               0
 Spin= Alpha
 Occup=    0.00486
   1    2.3133004834311e-15
   2    4.2222286709295e-15
   3    -1.1727116115404e-14
   4    -7.2578784009727e-15
   5    -9.0638302475484e-15
   6    -2.14628787554e-15
   7    -4.7464265719994e-15
   8    1.2540725808741e-14
   9    -7.1023676876722e-15
  10    -1.0109771280684e-14
  11    4.3228969817757e-14
  12    1.6457633928348e-14
  13     -0.57653005211243
  14     -0.16087809787991
  15    -4.6482619633302e-16
  16    -2.8369592160935e-15
  17    1.3873879956905e-14
  18    -1.8833646656594e-14
  19    -1.0557205583067e-14
  20    -7.8616333996135e-15
  21    1.339017752058e-15
  22    1.7135559513916e-15
  23    2.9572652055229e-15
  24    -1.107921844439e-16
  25    -4.1010241687068e-14
  26    1.113719103896e-14
  27     -0.69492412279475
  28     -0.19365796727349
 Sym= A
 Ene=               0
 Spin= Alpha
 Occup=    0.00486
   1    1.2122660675309e-15
   2    2.2138283378932e-15
   3    -7.7887016045558e-15
   4    -8.1220003975097e-15
   5    -1.1775840409694e-14
   6    -1.6449771891025e-16
   7    1.7026676428954e-14
   8    3.3696303006011e-14
   9    -5.529829570798e-15
  10    -5.1264332361633e-15
  11    2.4775493235008e-14
  12    5.3933398595963e-15
  13      0.16087006765149
  14     -0.57649998363474
  15    -9.6826791864301e-16
  16    -2.906167678846e-15
  17    1.0707369418205e-14
  18    1.253458998665e-14
  19    1.8899303685849e-14
  20    -3.3221693237291e-15
  21    -3.7569399060796e-14
  22    -3.7501645133118e-14
  23    5.134155994743e-16
  24    -1.5438491802252e-15
  25    -5.0178671168566e-14
  26    -1.8282194139706e-15
  27      0.19366493782021
  28     -0.69495025047733
 Sym= A
 Ene=               0
 Spin= Alpha
 Occup=    0.00215
   1    -0.0068638026003841
   2     0.095056344051358
   3    -0.093941270890461
   4    -2.3600445753827e-14
   5    -8.2617439313944e-15
   6      0.44462628473847
   7    4.941713902443e-15
   8    2.1473417709761e-14
   9     -0.13898454526139
  10       1.1752418011153
  11    -6.4733166329951e-14
  12    1.2291659622012e-15
  13    -1.1848940967631e-14
  14    -1.0953868527678e-14
  15     -0.51125335433462
  16      -1.0854465563828
  17      0.53134666140255
  18    6.7907669030611e-15
  19    1.9492905616898e-15
  20      0.68259948575896
  21    2.9475042590702e-14
  22    -1.1123172331301e-14
  23     -0.39836188077922
  24     -0.39982282958958
  25    -3.6700632511113e-14
  26    7.9613216417081e-15
  27    4.3428122484331e-15
  28    5.4221495481773e-15
 Sym= A
 Ene=               0
 Spin= Alpha
 Occup=    0.00200
   1    5.4802628896961e-15
   2    9.8245980114343e-15
   3    4.5366760606202e-15
   4    -7.4298876837005e-14
   5    3.7388562412147e-15
   6    3.8325389916517e-15
   7     6.66332331074e-14
   8    5.4020246855109e-15
   9    6.8385924949479e-16
  10    -1.4792091051456e-14
  11    -4.9097332606748e-14
  12    1.7903335696102e-14
  13     -0.79666203063514
  14     -0.16489265503513
  15    1.0021696232121e-14
  16    2.2175885477725e-14
  17    -2.1341924568026e-14
  18    8.8413911598787e-15
  19    -8.5861917448179e-16
  20    -7.2854933915488e-15
  21    4.0161835208765e-15
  22    -1.1183102648158e-14
  23    1.6809756385207e-14
  24    -2.2862607796807e-15
  25    -8.5760843042044e-14
  26    1.606538042738e-14
  27       0.6922626883455
  28      0.14310057019124
 Sym= A
 Ene=               0
 Spin= Alpha
 Occup=    0.00200
   1    3.4688177119835e-15
   2    6.0591411255846e-15
   3    -4.7598329974943e-15
   4    -2.5262457799974e-13
   5    -1.5658793621514e-13
   6    1.6008183426181e-15
   7    2.6456095144562e-13
   8    1.9756663092553e-13
   9    -6.0228953001246e-15
  10    -1.2324051082209e-14
  11    -1.6146568837735e-13
  12    -6.9952543650094e-14
  13      0.16490005289977
  14     -0.79668369944675
  15    4.8112233014538e-15
  16      1.0331998376e-14
  17    -1.2363222774242e-15
  18    6.1049493120554e-14
  19    5.0636996432898e-14
  20    -6.4168621366561e-15
  21    -4.345059690738e-14
  22    -7.2544789305777e-14
  23    8.2257216792501e-15
  24    -1.6017435027469e-15
  25    -2.6873704912352e-13
  26    -1.3259060520032e-13
  27     -0.14309166257587
  28      0.69223656797439
 Sym= A
 Ene=               0
 Spin= Alpha
 Occup=    0.00172
   1    8.2285512541374e-15
   2    1.0747197180501e-14
   3    8.9847289552673e-14
   4     -0.66893270279273
   5     -0.30452417954485
   6    1.2588895055627e-14
   7       0.5899745853792
   8       0.2691215808986
   9    5.8681397789998e-14
  10    -2.5647276322264e-14
  11     -0.54396002252547
  12     -0.24725195739206
  13    3.8426103111357e-15
  14    3.4316391723811e-13
  15    4.1970823677942e-14
  16    8.6615425166137e-14
  17    -1.6666576419329e-13
  18      0.12145332324539
  19     0.055415221628703
  20    -2.0028537421052e-14
  21     0.048673516449274
  22     0.021553027906992
  23    6.6553201273198e-14
  24    2.5298464569605e-15
  25     -0.76010052114116
  26     -0.34550873014046
  27    -3.6848519455824e-15
  28    -2.5721893901239e-13
 Sym= A
 Ene=               0
 Spin= Alpha
 Occup=    0.00172
   1    3.1042815980481e-15
   2    6.0823898224302e-15
   3    3.166269688034e-14
   4      -0.3045241795449
   5      0.66893270279264
   6    -3.3060539582072e-15
   7      0.26912158089887
   8     -0.58997458537878
   9    3.5754019925956e-14
  10    -4.4097657439437e-15
  11     -0.24725195739188
  12      0.54396002252576
  13    5.2330266786323e-14
  14    -2.1271587518388e-14
  15    9.5347210445861e-15
  16    1.7686766917465e-14
  17    -5.5037208988441e-14
  18      0.05541522162877
  19      -0.1214533232453
  20    -8.5072678554341e-15
  21     0.021553027906709
  22    -0.048673516449705
  23    2.4131552020599e-14
  24    5.1311835616634e-15
  25     -0.34550873014035
  26      0.76010052114134
  27    -3.597939891934e-14
  28    1.9608318073917e-14
 Sym= A
 Ene=               0
 Spin= Alpha
 Occup=    0.00102
   1     -0.67238608470169
   2      -1.3674589814317
   3      0.17275305295482
   4    1.3256302574252e-14
   5    -5.3327872458891e-15
   6     -0.99959819098531
   7    -8.3462278148413e-14
   8    1.9431476437819e-14
   9       0.5071596525453
  10      0.12578065910079
  11    -8.4244859677332e-14
  12    -4.6603426718723e-15
  13    -6.7061614475294e-15
  14    -8.3167590272427e-15
  15     -0.21017183264561
  16     -0.37946266581744
  17      0.83628219614217
  18    -1.58044848742e-14
  19    9.630062177919e-15
  20      0.11858696503882
  21    1.0051446110227e-13
  22    -1.669992018015e-14
  23      -1.2713593596468
  24      0.95301029171706
  25    -2.6825199772424e-14
  26    5.9658864889377e-15
  27    2.2771409721293e-15
  28    2.5705568053568e-15
 Sym= A
 Ene=               0
 Spin= Alpha
 Occup=    0.00070
   1    -2.5673905164699e-14
   2    -5.1274671481306e-14
   3    1.7581396844508e-13
   4     -0.23820260397224
   5     -0.13997730748932
   6    -7.8663402279604e-15
   7       1.0613426492383
   8      0.62245009763224
   9    1.5523427560284e-13
  10    7.1687118287085e-14
  11      0.72128881104916
  12      0.42240896286429
  13    -4.3421474470732e-15
  14    6.4939391552221e-14
  15    1.5687026775569e-14
  16    3.0705197963779e-14
  17    -2.2142340832218e-13
  18      0.22070711696659
  19      0.12945208265103
  20    3.0976063516608e-14
  21      -1.0715402063613
  22     -0.62805880749468
  23    1.1412961287646e-14
  24    2.7567233365294e-14
  25      0.46726684528217
  26      0.27347116362034
  27    3.8613058933449e-15
  28    -3.141917817976e-14
 Sym= A
 Ene=               0
 Spin= Alpha
 Occup=    0.00070
   1    -2.26264334088e-14
   2    -4.3327351727858e-14
   3    9.4880008930071e-14
   4     -0.13997730748913
   5      0.23820260397245
   6    -1.4338710521589e-14
   7      0.62245009763209
   8      -1.0613426492385
   9    9.3634560449634e-14
  10    5.9217449214459e-14
  11      0.42240896286441
  12      -0.7212888110489
  13    -4.3172003657297e-15
  14    -3.4956041568253e-14
  15    -3.191530987918e-15
  16    -7.5314242614031e-15
  17    -9.9977344912573e-14
  18      0.12945208265101
  19      -0.2207071169667
  20    2.7903635749732e-14
  21      -0.6280588074947
  22       1.0715402063613
  23    -1.6875040725938e-14
  24    2.3033807582344e-14
  25      0.27347116362056
  26     -0.46726684528193
  27    -2.6648241647521e-15
  28    1.0958646818333e-14
 Sym= A
 Ene=               0
 Spin= Alpha
 Occup=    0.00023
   1      0.27189183367926
   2      0.55209078302371
   3       2.8320794277132
   4    3.7618993782874e-14
   5    7.1214094716347e-16
   6      0.72444562578755
   7    -9.7670692602163e-14
   8    -1.1459761759452e-15
   9       2.2649936653383
  10      0.84889038152512
  11    -4.5036638917255e-14
  12    -6.0346632119524e-15
  13    -1.1684669212513e-16
  14    -3.1124667333472e-15
  15      0.58918974208984
  16       1.1355577849479
  17      -4.7887421499257
  18    -1.7003493327778e-14
  19    4.137777716358e-15
  20      0.22155453046146
  21    8.0836655775081e-14
  22    -5.7035338013399e-16
  23       1.6191789695773
  24     -0.40520186873931
  25    -4.955199867648e-15
  26    1.2511271496066e-15
  27    -3.1342915973905e-15
  28    -1.3058527491282e-15
