
                                 *****************
                                 * O   R   C   A *
                                 *****************

           --- An Ab Initio, DFT and Semiempirical electronic structure package ---

                  #######################################################
                  #                        -***-                        #
                  #          Department of theory and spectroscopy      #
                  #               Directorship: Frank Neese             #
                  #        Max Planck Institute fuer Kohlenforschung    #
                  #                Kaiser Wilhelm Platz 1               #
                  #                 D-45470 Muelheim/Ruhr               #
                  #                      Germany                        #
                  #                                                     #
                  #                  All rights reserved                #
                  #                        -***-                        #
                  #######################################################


                         Program Version 4.2.1 -  RELEASE  -


 With contributions from (in alphabetic order):
   Daniel Aravena         : Magnetic Suceptibility
   Michael Atanasov       : Ab Initio Ligand Field Theory (pilot matlab implementation)
   Alexander A. Auer      : GIAO ZORA, VPT2
   Ute Becker             : Parallelization
   Giovanni Bistoni       : ED, misc. LED, open-shell LED, HFLD
   Martin Brehm           : Molecular dynamics
   Dmytro Bykov           : SCF Hessian
   Vijay G. Chilkuri      : MRCI spin determinant printing, contributions to CSF-ICE
   Dipayan Datta          : RHF DLPNO-CCSD density
   Achintya Kumar Dutta   : EOM-CC, STEOM-CC
   Dmitry Ganyushin       : Spin-Orbit,Spin-Spin,Magnetic field MRCI
   Miquel Garcia          : C-PCM Hessian, Gaussian charge scheme
   Yang Guo               : DLPNO-NEVPT2, CIM, IAO-localization
   Andreas Hansen         : Spin unrestricted coupled pair/coupled cluster methods
   Benjamin Helmich-Paris : CASSCF linear response (MC-RPA)
   Lee Huntington         : MR-EOM, pCC
   Robert Izsak           : Overlap fitted RIJCOSX, COSX-SCS-MP3, EOM
   Christian Kollmar      : KDIIS, OOCD, Brueckner-CCSD(T), CCSD density
   Simone Kossmann        : Meta GGA functionals, TD-DFT gradient, OOMP2, MP2 Hessian
   Martin Krupicka        : AUTO-CI
   Lucas Lang             : DCDCAS
   Dagmar Lenk            : GEPOL surface, SMD
   Dimitrios Liakos       : Extrapolation schemes; Compound Job, initial MDCI parallelization
   Dimitrios Manganas     : Further ROCIS development; embedding schemes
   Dimitrios Pantazis     : SARC Basis sets
   Taras Petrenko         : DFT Hessian,TD-DFT gradient, ASA, ECA, R-Raman, ABS, FL, XAS/XES, NRVS
   Peter Pinski           : DLPNO-MP2, DLPNO-MP2 Gradient
   Christoph Reimann      : Effective Core Potentials
   Marius Retegan         : Local ZFS, SOC
   Christoph Riplinger    : Optimizer, TS searches, QM/MM, DLPNO-CCSD(T), (RO)-DLPNO pert. Triples
   Tobias Risthaus        : Range-separated hybrids, TD-DFT gradient, RPA, STAB
   Michael Roemelt        : Original ROCIS implementation
   Masaaki Saitow         : Open-shell DLPNO-CCSD energy and density
   Barbara Sandhoefer     : DKH picture change effects
   Avijit Sen             : IP-ROCIS
   Kantharuban Sivalingam : CASSCF convergence, NEVPT2, FIC-MRCI
   Bernardo de Souza      : ESD, SOC TD-DFT
   Georgi Stoychev        : AutoAux, RI-MP2 NMR
   Willem Van den Heuvel  : Paramagnetic NMR
   Boris Wezisla          : Elementary symmetry handling
   Frank Wennmohs         : Technical directorship


 We gratefully acknowledge several colleagues who have allowed us to
 interface, adapt or use parts of their codes:
   Stefan Grimme, W. Hujo, H. Kruse,             : VdW corrections, initial TS optimization,
                  C. Bannwarth                     DFT functionals, gCP, sTDA/sTD-DF
   Ed Valeev, F. Pavosevic, A. Kumar             : LibInt (2-el integral package), F12 methods
   Garnet Chan, S. Sharma, J. Yang, R. Olivares  : DMRG
   Ulf Ekstrom                                   : XCFun DFT Library
   Mihaly Kallay                                 : mrcc  (arbitrary order and MRCC methods)
   Andreas Klamt, Michael Diedenhofen            : otool_cosmo (COSMO solvation model)
   Jiri Pittner, Ondrej Demel                    : Mk-CCSD
   Frank Weinhold                                : gennbo (NPA and NBO analysis)
   Christopher J. Cramer and Donald G. Truhlar   : smd solvation model
   Lars Goerigk                                  : TD-DFT with DH, B97 family of functionals
   V. Asgeirsson, H. Jonsson                     : NEB implementation
   FAccTs GmbH                                   : IRC, NEB, NEB-TS, Multilevel, MM, QM/MM, CI optimization
   S Lehtola, MJT Oliveira, MAL Marques          : LibXC Library


 Your calculation uses the libint2 library for the computation of 2-el integrals
 For citations please refer to: http://libint.valeyev.net

 Your ORCA version has been built with support for libXC version: 4.2.3
 For citations please refer to: https://tddft.org/programs/libxc/

 This ORCA versions uses:
   CBLAS   interface :  Fast vector & matrix operations
   LAPACKE interface :  Fast linear algebra routines
   SCALAPACK package :  Parallel linear algebra routines


Your calculation utilizes the atom-pairwise dispersion correction
with the Becke-Johnson damping scheme (D3BJ)
Cite in your paper:
S.Grimme, S.Ehrlich, L.Goerigk, J Comput Chem, (2011), 32, 1456–1465 
S.Grimme, J.Antony, S.Ehrlich and H.Krieg, J.Chem.Phys., 132, (2010), 154104 
   

----- Orbital basis set information -----
Your calculation utilizes the basis: MINIX,
   a combination of small basis sets by S. Grimme (see manual for definitions).

----- AuxJ basis set information -----
Your calculation utilizes the auxiliary basis: def2/J
   F. Weigend, Phys. Chem. Chem. Phys. 8, 1057 (2006).

================================================================================
                                        WARNINGS
                       Please study these warnings very carefully!
================================================================================


INFO   : the flag for use of LIBINT has been found!

================================================================================
                                       INPUT FILE
================================================================================
NAME = orca-input.inp
|  1> ! BP86 MINIX Grid4 Finalgrid5 D3BJ tightscf
|  2> ! Engrad
|  3> %pointcharges "orca-input.pc"
|  4> %scf maxiter 200 end
|  5> 
|  6> *xyz 0 1
|  7> C -0.4633748280136799 0.1353427634535475 -6.063257455182704 
|  8> H -0.2633756657826193 -0.6377604801914829 -6.8082513547014685 
|  9> H -1.5155534688491719 0.4382434979749837 -6.143442847089099 
| 10> H 0.17883770462224652 1.0021948188325276 -6.268052712939846 
| 11> O -0.17491163748852795 -0.5005958882955631 -4.737618055963015 
| 12> H -0.31001557987880013 0.23180935380254084 -4.02710935569443 
| 13> *
| 14> 
| 15>                          ****END OF INPUT****
================================================================================

                     *******************************
                     * Energy+Gradient Calculation *
                     *******************************

---------------------------------
CARTESIAN COORDINATES (ANGSTROEM)
---------------------------------
  C     -0.463375    0.135343   -6.063257
  H     -0.263376   -0.637760   -6.808251
  H     -1.515553    0.438243   -6.143443
  H      0.178838    1.002195   -6.268053
  O     -0.174912   -0.500596   -4.737618
  H     -0.310016    0.231809   -4.027109

----------------------------
CARTESIAN COORDINATES (A.U.)
----------------------------
  NO LB      ZA    FRAG     MASS         X           Y           Z
   0 C     6.0000    0    12.011   -0.875652    0.255761  -11.457896
   1 H     1.0000    0     1.008   -0.497708   -1.205193  -12.865731
   2 H     1.0000    0     1.008   -2.863981    0.828160  -11.609425
   3 H     1.0000    0     1.008    0.337954    1.893874  -11.844903
   4 O     8.0000    0    15.999   -0.330535   -0.945989   -8.952801
   5 H     1.0000    0     1.008   -0.585845    0.438056   -7.610134

--------------------------------
INTERNAL COORDINATES (ANGSTROEM)
--------------------------------
 C      0   0   0     0.000000000000     0.00000000     0.00000000
 H      1   0   0     1.092109976398     0.00000000     0.00000000
 H      1   2   0     1.097842631837   108.72356428     0.00000000
 H      1   2   3     1.098094039957   108.93527258   241.07673264
 O      1   2   3     1.498315319898   105.53509563   119.70875572
 H      5   1   2     1.029316825404   106.46593906   177.01562687

---------------------------
INTERNAL COORDINATES (A.U.)
---------------------------
 C      0   0   0     0.000000000000     0.00000000     0.00000000
 H      1   0   0     2.063788763515     0.00000000     0.00000000
 H      1   2   0     2.074621912316   108.72356428     0.00000000
 H      1   2   3     2.075097004810   108.93527258   241.07673264
 O      1   2   3     2.831405616865   105.53509563   119.70875572
 H      5   1   2     1.945126905051   106.46593906   177.01562687

---------------------
BASIS SET INFORMATION
---------------------
There are 3 groups of distinct atoms

 Group   1 Type C   : 6s3p contracted to 2s1p pattern {33/3}
 Group   2 Type H   : 3s contracted to 1s pattern {3}
 Group   3 Type O   : 6s3p contracted to 2s1p pattern {33/3}

Atom   0C    basis set group =>   1
Atom   1H    basis set group =>   2
Atom   2H    basis set group =>   2
Atom   3H    basis set group =>   2
Atom   4O    basis set group =>   3
Atom   5H    basis set group =>   2
---------------------------------
AUXILIARY/J BASIS SET INFORMATION
---------------------------------
There are 3 groups of distinct atoms

 Group   1 Type C   : 12s5p4d2f1g contracted to 6s4p3d1f1g pattern {711111/2111/211/2/1}
 Group   2 Type H   : 5s2p1d contracted to 3s1p1d pattern {311/2/1}
 Group   3 Type O   : 12s5p4d2f1g contracted to 6s4p3d1f1g pattern {711111/2111/211/2/1}

Atom   0C    basis set group =>   1
Atom   1H    basis set group =>   2
Atom   2H    basis set group =>   2
Atom   3H    basis set group =>   2
Atom   4O    basis set group =>   3
Atom   5H    basis set group =>   2

Checking for AutoStart:
The File: orca-input.gbw exists
Trying to determine its content:
     ... Fine, the file contains calculation information
     ... Fine, the calculation information was read
     ... Fine, the file contains a basis set
     ... Fine, the basis set was read
     ... Fine, the file contains a geometry
     ... Fine, the geometry was read
     ... Fine, the file contains a set of orbitals
     ... Fine, the orbitals can be read
     => possible old guess file was deleted
     => GBW file was renamed to GES file
     => GES file is set as startup file
     => Guess is set to MORead
     ... now leaving AutoStart

------------------------------------------------------------------------------
                           ORCA GTO INTEGRAL CALCULATION
                           -- RI-GTO INTEGRALS CHOSEN --
------------------------------------------------------------------------------

                         BASIS SET STATISTICS AND STARTUP INFO

Gaussian basis set:
 # of primitive gaussian shells          ...   30
 # of primitive gaussian functions       ...   42
 # of contracted shells                  ...   10
 # of contracted basis functions         ...   14
 Highest angular momentum                ...    1
 Maximum contraction depth               ...    3
Auxiliary gaussian basis set:
 # of primitive gaussian shells          ...   80
 # of primitive gaussian functions       ...  204
 # of contracted shells                  ...   50
 # of contracted aux-basis functions     ...  142
 Highest angular momentum                ...    4
 Maximum contraction depth               ...    7
Ratio of auxiliary to basis functions    ... 10.14
Integral package used                  ... LIBINT
 One Electron integrals                  ... done
 Ordering auxiliary basis shells         ... done
 Integral threshhold             Thresh  ...  2.500e-11
 Primitive cut-off               TCut    ...  2.500e-12
 Pre-screening matrix                    ... done
 Shell pair data                         ... 
 Ordering of the shell pairs             ... done (   0.000 sec) 55 of 55 pairs
 Determination of significant pairs      ... done (   0.000 sec)
 Creation of shell pair data             ... done (   0.000 sec)
 Storage of shell pair data              ... done (   0.000 sec)
 Shell pair data done in (   0.000 sec)
 Computing two index integrals           ... done
 Cholesky decomposition of the V-matrix  ... done


Timings:
 Total evaluation time                   ...   0.173 sec (  0.003 min)
 One electron matrix time                ...   0.007 sec (  0.000 min) =  3.8%
 Schwartz matrix evaluation time         ...   0.145 sec (  0.002 min) = 83.8%
 Two index repulsion integral time       ...   0.001 sec (  0.000 min) =  0.5%
 Cholesky decomposition of V             ...   0.001 sec (  0.000 min) =  0.5%
 Three index repulsion integral time     ...   0.000 sec (  0.000 min) =  0.0%

ENUC WAS=  0.000000000
------------------------------------------------------------------------------
                            ORCA POINT-CHARGE CORRECTION
------------------------------------------------------------------------------

BaseName                           ... orca-input
Point charge file                  ... orca-input.pc

Reading the GBW file               ... done
Reading the one-electron matrix    ... done
Reading the point charges          ... done
Number of point charges            ... 3
Reading the nuclear-repulsion      ... done
Charge-Nuclei interaction          ... done
The nuclear repulsion file was updated
Doing the point charge correction  ... done
Storing the one-electron matrix    ... done

ENUC IS = 39.040969095
-------------------------------------------------------------------------------
                                 ORCA SCF
-------------------------------------------------------------------------------

------------
SCF SETTINGS
------------
Hamiltonian:
 Density Functional     Method          .... DFT(GTOs)
 Exchange Functional    Exchange        .... B88
   X-Alpha parameter    XAlpha          ....  0.666667
   Becke's b parameter  XBeta           ....  0.004200
 Correlation Functional Correlation     .... P86
 LDA part of GGA corr.  LDAOpt          .... PW91-LDA
 Gradients option       PostSCFGGA      .... off
   Density functional embedding theory  .... OFF
 RI-approximation to the Coulomb term is turned on
   Number of auxiliary basis functions  .... 142


General Settings:
 Integral files         IntName         .... orca-input
 Hartree-Fock type      HFTyp           .... RHF
 Total Charge           Charge          ....    0
 Multiplicity           Mult            ....    1
 Number of Electrons    NEL             ....   18
 Basis Dimension        Dim             ....   14
 Nuclear Repulsion      ENuc            ....     39.0409690951 Eh

Convergence Acceleration:
 DIIS                   CNVDIIS         .... on
   Start iteration      DIISMaxIt       ....    12
   Startup error        DIISStart       ....  0.200000
   # of expansion vecs  DIISMaxEq       ....     5
   Bias factor          DIISBfac        ....   1.050
   Max. coefficient     DIISMaxC        ....  10.000
 Newton-Raphson         CNVNR           .... off
 SOSCF                  CNVSOSCF        .... on
   Start iteration      SOSCFMaxIt      ....   150
   Startup grad/error   SOSCFStart      ....  0.003300
 Level Shifting         CNVShift        .... on
   Level shift para.    LevelShift      ....    0.2500
   Turn off err/grad.   ShiftErr        ....    0.0010
 Zerner damping         CNVZerner       .... off
 Static damping         CNVDamp         .... on
   Fraction old density DampFac         ....    0.7000
   Max. Damping (<1)    DampMax         ....    0.9800
   Min. Damping (>=0)   DampMin         ....    0.0000
   Turn off err/grad.   DampErr         ....    0.1000
 Fernandez-Rico         CNVRico         .... off

SCF Procedure:
 Maximum # iterations   MaxIter         ....   200
 SCF integral mode      SCFMode         .... Direct
   Integral package                     .... LIBINT
 Reset frequency        DirectResetFreq ....    20
 Integral Threshold     Thresh          ....  2.500e-11 Eh
 Primitive CutOff       TCut            ....  2.500e-12 Eh

Convergence Tolerance:
 Convergence Check Mode ConvCheckMode   .... Total+1el-Energy
 Convergence forced     ConvForced      .... 0
 Energy Change          TolE            ....  1.000e-08 Eh
 1-El. energy change                    ....  1.000e-05 Eh
 Orbital Gradient       TolG            ....  1.000e-05
 Orbital Rotation angle TolX            ....  1.000e-05
 DIIS Error             TolErr          ....  5.000e-07


Diagonalization of the overlap matrix:
Smallest eigenvalue                        ... 2.321e-01
Time for diagonalization                   ...    0.000 sec
Threshold for overlap eigenvalues          ... 1.000e-08
Number of eigenvalues below threshold      ... 0
Time for construction of square roots      ...    0.001 sec
Total time needed                          ...    0.001 sec

---------------------
INITIAL GUESS: MOREAD
---------------------
Guess MOs are being read from file: orca-input.ges
Input geometry compatible with but different from current geometry
Input basis set matches current basis set (good)
MOs were renormalized
MOs were reorthogonalized (Cholesky)
                      ------------------
                      INITIAL GUESS DONE (   0.0 sec)
                      ------------------
-------------------
DFT GRID GENERATION
-------------------

General Integration Accuracy     IntAcc      ...  4.670
Radial Grid Type                 RadialGrid  ... Gauss-Chebyshev
Angular Grid (max. acc.)         AngularGrid ... Lebedev-302
Angular grid pruning method      GridPruning ... 3 (G Style)
Weight generation scheme         WeightScheme... Becke
Basis function cutoff            BFCut       ...    1.0000e-11
Integration weight cutoff        WCut        ...    1.0000e-14
Grids for H and He will be reduced by one unit

# of grid points (after initial pruning)     ...  26000 (   0.0 sec)
# of grid points (after weights+screening)   ...  25192 (   0.0 sec)
nearest neighbour list constructed           ...    0.0 sec
Grid point re-assignment to atoms done       ...    0.0 sec
Grid point division into batches done        ...    0.1 sec
Reduced shell lists constructed in    0.1 sec

Total number of grid points                  ...    25192
Total number of batches                      ...      397
Average number of points per batch           ...       63
Average number of grid points per atom       ...     4199
Average number of shells per batch           ...     7.83 (78.29%)
Average number of basis functions per batch  ...    11.41 (81.48%)
Average number of large shells per batch     ...     7.38 (94.32%)
Average number of large basis fcns per batch ...    10.88 (95.40%)
Maximum spatial batch extension              ...  17.51, 20.64, 19.22 au
Average spatial batch extension              ...   3.07,  3.06,  2.99 au

Time for grid setup =    0.105 sec

--------------
SCF ITERATIONS
--------------
ITER       Energy         Delta-E        Max-DP      RMS-DP      [F,P]     Damp
               ***  Starting incremental Fock matrix formation  ***
  0   -114.9661539888   0.000000000000 0.01996288  0.00287434  0.0312451 0.7000
  1   -114.9669536951  -0.000799706342 0.01907518  0.00278626  0.0222885 0.7000
                               ***Turning on DIIS***
  2   -114.9675012888  -0.000547593682 0.04837873  0.00689598  0.0158343 0.0000
  3   -114.9686434082  -0.001142119441 0.01195105  0.00159732  0.0047888 0.0000
                      *** Initiating the SOSCF procedure ***
                           *** Shutting down DIIS ***
                      *** Re-Reading the Fockian *** 
                      *** Removing any level shift *** 
ITER      Energy       Delta-E        Grad      Rot      Max-DP    RMS-DP
  4   -114.96868077  -0.0000373588  0.000970  0.000970  0.002922  0.000406
               *** Restarting incremental Fock matrix formation ***
  5   -114.96869681  -0.0000160478  0.000494  0.000949  0.002884  0.000402
  6   -114.96869547   0.0000013419  0.000640  0.000577  0.001650  0.000236
  7   -114.96869816  -0.0000026914  0.000041  0.000053  0.000160  0.000029
  8   -114.96869816  -0.0000000002  0.000040  0.000026  0.000080  0.000014
                 **** Energy Check signals convergence ****
              ***Rediagonalizing the Fockian in SOSCF/NRSCF***

               *****************************************************
               *                     SUCCESS                       *
               *           SCF CONVERGED AFTER   9 CYCLES          *
               *****************************************************

Setting up the final grid:

General Integration Accuracy     IntAcc      ...  5.010
Radial Grid Type                 RadialGrid  ... Gauss-Chebyshev
Angular Grid (max. acc.)         AngularGrid ... Lebedev-434
Angular grid pruning method      GridPruning ... 3 (G Style)
Weight generation scheme         WeightScheme... Becke
Basis function cutoff            BFCut       ...    1.0000e-11
Integration weight cutoff        WCut        ...    1.0000e-14
Grids for H and He will be reduced by one unit

# of grid points (after initial pruning)     ...  48308 (   0.0 sec)
# of grid points (after weights+screening)   ...  46752 (   0.0 sec)
nearest neighbour list constructed           ...    0.0 sec
Grid point re-assignment to atoms done       ...    0.0 sec
Grid point division into batches done        ...    0.3 sec
Reduced shell lists constructed in    0.3 sec

Total number of grid points                  ...    46752
Total number of batches                      ...      733
Average number of points per batch           ...       63
Average number of grid points per atom       ...     7792
Average number of shells per batch           ...     7.68 (76.84%)
Average number of basis functions per batch  ...    11.22 (80.13%)
Average number of large shells per batch     ...     7.20 (93.67%)
Average number of large basis fcns per batch ...    10.60 (94.47%)
Maximum spatial batch extension              ...  19.88, 19.21, 16.75 au
Average spatial batch extension              ...   2.52,  2.51,  2.41 au

Final grid set up in    0.3 sec
Final integration                            ... done (   0.1 sec)
Change in XC energy                          ...    -0.000009982
Integrated number of electrons               ...    18.000000023
Previous integrated no of electrons          ...    18.000009949

----------------
TOTAL SCF ENERGY
----------------

Total Energy       :         -114.96870815 Eh           -3128.45760 eV

Components:
Nuclear Repulsion  :           39.04096910 Eh            1062.35878 eV
Electronic Energy  :         -154.00967725 Eh           -4190.81637 eV
One Electron Energy:         -233.74757321 Eh           -6360.59483 eV
Two Electron Energy:           79.73789596 Eh            2169.77846 eV

Virial components:
Potential Energy   :         -229.25370390 Eh           -6238.31043 eV
Kinetic Energy     :          114.28499575 Eh            3109.85284 eV
Virial Ratio       :            2.00598252


DFT components:
N(Alpha)           :        9.000000011646 electrons
N(Beta)            :        9.000000011646 electrons
N(Total)           :       18.000000023293 electrons
E(X)               :      -14.804048117479 Eh       
E(C)               :       -0.641041049657 Eh       
E(XC)              :      -15.445089167135 Eh       
DFET-embed. en.    :        0.000000000000 Eh       

---------------
SCF CONVERGENCE
---------------

  Last Energy change         ...   -8.3937e-09  Tolerance :   1.0000e-08
  Last MAX-Density change    ...    1.0535e-06  Tolerance :   1.0000e-07
  Last RMS-Density change    ...    2.3862e-07  Tolerance :   5.0000e-09
  Last Orbital Gradient      ...    3.3655e-07  Tolerance :   1.0000e-05
  Last Orbital Rotation      ...    6.5796e-07  Tolerance :   1.0000e-05

             **** THE GBW FILE WAS UPDATED (orca-input.gbw) ****
             **** DENSITY FILE WAS UPDATED (orca-input.scfp) ****
             **** ENERGY FILE WAS UPDATED (orca-input.en.tmp) ****
             **** THE GBW FILE WAS UPDATED (orca-input.gbw) ****
             **** DENSITY FILE WAS UPDATED (orca-input.scfp) ****
----------------
ORBITAL ENERGIES
----------------

  NO   OCC          E(Eh)            E(eV) 
   0   2.0000     -18.548952      -504.7426 
   1   2.0000      -9.898626      -269.3553 
   2   2.0000      -0.894463       -24.3396 
   3   2.0000      -0.626986       -17.0612 
   4   2.0000      -0.433986       -11.8094 
   5   2.0000      -0.394737       -10.7413 
   6   2.0000      -0.373283       -10.1575 
   7   2.0000      -0.251830        -6.8526 
   8   2.0000      -0.179146        -4.8748 
   9   0.0000       0.142024         3.8647 
  10   0.0000       0.250158         6.8072 
  11   0.0000       0.367782        10.0079 
  12   0.0000       0.368938        10.0393 
  13   0.0000       0.412664        11.2292 

                    ********************************
                    * MULLIKEN POPULATION ANALYSIS *
                    ********************************

-----------------------
MULLIKEN ATOMIC CHARGES
-----------------------
   0 C :   -0.301190
   1 H :    0.163384
   2 H :    0.159559
   3 H :    0.150864
   4 O :   -0.469221
   5 H :    0.296603
Sum of atomic charges:    0.0000000

--------------------------------
MULLIKEN REDUCED ORBITAL CHARGES
--------------------------------
  0 C s       :     3.190695  s :     3.190695
      pz      :     0.879990  p :     3.110495
      px      :     1.135845
      py      :     1.094659
  1 H s       :     0.836616  s :     0.836616
  2 H s       :     0.840441  s :     0.840441
  3 H s       :     0.849136  s :     0.849136
  4 O s       :     3.848638  s :     3.848638
      pz      :     1.164675  p :     4.620583
      px      :     1.930340
      py      :     1.525568
  5 H s       :     0.703397  s :     0.703397


                     *******************************
                     * LOEWDIN POPULATION ANALYSIS *
                     *******************************

----------------------
LOEWDIN ATOMIC CHARGES
----------------------
   0 C :   -0.166610
   1 H :    0.105000
   2 H :    0.099254
   3 H :    0.093170
   4 O :   -0.357248
   5 H :    0.226433

-------------------------------
LOEWDIN REDUCED ORBITAL CHARGES
-------------------------------
  0 C s       :     3.029443  s :     3.029443
      pz      :     0.914280  p :     3.137167
      px      :     1.128552
      py      :     1.094335
  1 H s       :     0.895000  s :     0.895000
  2 H s       :     0.900746  s :     0.900746
  3 H s       :     0.906830  s :     0.906830
  4 O s       :     3.721689  s :     3.721689
      pz      :     1.177266  p :     4.635559
      px      :     1.932188
      py      :     1.526105
  5 H s       :     0.773567  s :     0.773567


                      *****************************
                      * MAYER POPULATION ANALYSIS *
                      *****************************

  NA   - Mulliken gross atomic population
  ZA   - Total nuclear charge
  QA   - Mulliken gross atomic charge
  VA   - Mayer's total valence
  BVA  - Mayer's bonded valence
  FA   - Mayer's free valence

  ATOM       NA         ZA         QA         VA         BVA        FA
  0 C      6.3012     6.0000    -0.3012     3.8452     3.8452     0.0000
  1 H      0.8366     1.0000     0.1634     0.9733     0.9733     0.0000
  2 H      0.8404     1.0000     0.1596     0.9745     0.9745     0.0000
  3 H      0.8491     1.0000     0.1509     0.9772     0.9772     0.0000
  4 O      8.4692     8.0000    -0.4692     1.9323     1.9323     0.0000
  5 H      0.7034     1.0000     0.2966     0.9120     0.9120    -0.0000

  Mayer bond orders larger than 0.100000
B(  0-C ,  1-H ) :   0.9573 B(  0-C ,  2-H ) :   0.9472 B(  0-C ,  3-H ) :   0.9500 
B(  0-C ,  4-O ) :   0.9813 B(  4-O ,  5-H ) :   0.8946 

-------
TIMINGS
-------

Total SCF time: 0 days 0 hours 0 min 1 sec 

Total time                  ....       1.792 sec
Sum of individual times     ....       1.674 sec  ( 93.4%)

Fock matrix formation       ....       1.234 sec  ( 68.8%)
  Split-RI-J                ....       0.828 sec  ( 67.1% of F)
  XC integration            ....       0.382 sec  ( 31.0% of F)
    Basis function eval.    ....       0.139 sec  ( 36.3% of XC)
    Density eval.           ....       0.057 sec  ( 14.8% of XC)
    XC-Functional eval.     ....       0.116 sec  ( 30.5% of XC)
    XC-Potential eval.      ....       0.024 sec  (  6.3% of XC)
Diagonalization             ....       0.000 sec  (  0.0%)
Density matrix formation    ....       0.000 sec  (  0.0%)
Population analysis         ....       0.002 sec  (  0.1%)
Initial guess               ....       0.001 sec  (  0.1%)
Orbital Transformation      ....       0.000 sec  (  0.0%)
Orbital Orthonormalization  ....       0.000 sec  (  0.0%)
DIIS solution               ....       0.000 sec  (  0.0%)
SOSCF solution              ....       0.000 sec  (  0.0%)
Grid generation             ....       0.436 sec  ( 24.3%)


-------------------------------------------------------------------------------
                          DFT DISPERSION CORRECTION                            
                                                                               
                              DFTD3 V3.1  Rev 1                                
                          USING Becke-Johnson damping                          
-------------------------------------------------------------------------------
The BP86 functional is recognized
Active option DFTDOPT                   ...         4   

molecular C6(AA) [au] = 208.984651 


            DFT-D V3
 parameters
 s6 scaling factor         :     1.0000 
 a1 scaling factor         :     0.3946 
 s8 scaling factor         :     3.2822 
 a2 scaling factor         :     4.8516 
 ad hoc parameters k1-k3   :    16.0000     1.3333    -4.0000 

 Edisp/kcal,au: -1.602405734794  -0.002553595810 
 E6   /kcal   :  -0.686216971 
 E8   /kcal   :  -0.916188764 
 % E8         :  57.175829087 

-------------------------   ----------------
Dispersion correction           -0.002553596
-------------------------   ----------------


-------------------------   --------------------
FINAL SINGLE POINT ENERGY      -114.971261750323
-------------------------   --------------------

------------------------------------------------------------------------------
                         ORCA SCF GRADIENT CALCULATION
------------------------------------------------------------------------------

Gradient of the Kohn-Sham DFT energy:
Kohn-Sham wavefunction type      ... RKS
Hartree-Fock exchange scaling    ...    0.000
Number of operators              ...    1
Number of atoms                  ...    6
Basis set dimensions             ...   14
Integral neglect threshold       ... 2.5e-11
Integral primitive cutoff        ... 2.5e-12

Nuclear repulsion gradient       ... done
One Electron Gradient            ... done
Pre-screening matrix             ... done
RI-J gradient                    ... done
Exchange-correlation gradient    ... 
ORCA finished by error termination in SCF gradient
Calling Command: /Applications/orca_4.2.1/orca_scfgrad orca-input.scfgrad.inp 
[file orca_tools/qcmsg.cpp, line 458]: 
  .... aborting the run

[file orca_tools/qcmsg.cpp, line 458]: 
  .... aborting the run

