$orca_hessian_file

$hessian
9
         0         1         2         3         4
    0            0.4259659939141531         -0.21633381850478686         -0.7129247072492417         -0.32348773843868506         -0.02045488631875842
    1            -0.21633381850478686         1.7785268648974162         0.2722510491132925         0.06070733733859673         -0.14835972902474862
    2            -0.7129247072492417         0.2722510491132925         1.6519240029665614         0.6636064580502581         0.08899452408579148
    3            -0.32348773843868506         0.06070733733859673         0.6636064580502581         0.3267861837142176         -0.044493177101838574
    4            -0.02045488631875842         -0.14835972902474862         0.08899452408579148         -0.044493177101838574         0.16548914496356648
    5            0.6405967357130933         -0.08872477727606456         -1.4074247928087225         -0.6629960280848407         0.0628086274116252
    6            -0.05275858555742702         0.14318602797411678         0.0802515576663661         -0.013341174124621921         0.07119763024236997
    7            0.24014079302795024         -1.643417338727766         -0.3655682661106428         -0.015170072835864854         -0.01840764324058773
    8            0.07260827637759351         -0.180147765073776         -0.18637402784069207         0.02336903555951144         -0.1545685828506264
         5         6         7         8
    0            0.6405967357130933         -0.05275858555742702         0.24014079302795024         0.07260827637759351
    1            -0.08872477727606456         0.14318602797411678         -1.643417338727766         -0.180147765073776
    2            -1.4074247928087225         0.0802515576663661         -0.3655682661106428         -0.18637402784069207
    3            -0.6629960280848407         -0.013341174124621921         -0.015170072835864854         0.02336903555951144
    4            0.0628086274116252         0.07119763024236997         -0.01840764324058773         -0.1545685828506264
    5            1.4337661516834665         0.017183351873559495         0.02812555517501914         -0.03683863124617143
    6            0.017183351873559495         0.07085436467114892         -0.2309470410962594         -0.09920749345159147
    7            0.02812555517501914         -0.2309470410962594         1.6970498715162978         0.3323571567993424
    8            -0.03683863124617143         -0.09920749345159147         0.3323571567993424         0.21426020543405092

# The atoms: label  mass x y z (in bohrs)
$atoms
5
 O    1.00794  3.732560586838546 -1.4238991869018462 3.7792179248760993
 H    35.45  2.9499720859549465 -1.401753486437606 5.452810404186939
 H    15.9994  3.962842612486837 -3.2244699234866996 3.437799216063508


