5    
Iteration 0 Energy -460.96032350
H        0.0000000000    0.0000000000    0.0000000000
Cl       0.0000000000    0.0000000000    1.5000000000
O        2.1720930000   -1.0082950000    2.5712520000
H        1.4540720000   -0.6749870000    2.0187930000
H        2.2379510000   -1.9409370000    2.3310400000
5    
Iteration 1 Energy -460.96853466
H       -0.0017721016    0.0010054695    0.0039192813
Cl      -0.1307668059    0.0596678422    1.4329082832
O        2.2521415203   -1.0565912494    2.6041080566
H        1.5394108618   -0.6751213308    2.0765144292
H        2.2713719793   -1.9835163874    2.3352211675
5    
Iteration 2 Energy -460.97090956
H       -0.0055851800    0.0029071752    0.0061937477
Cl      -0.1874190067    0.0856558964    1.3997758151
O        2.2912061645   -1.0828310433    2.6198351701
H        1.5818506496   -0.6703758192    2.1113523605
H        2.2805654660   -2.0038567450    2.3309431253
5    
Iteration 3 Energy -460.97177080
H       -0.0080173853    0.0040674986    0.0070468766
Cl      -0.2162342336    0.0989462558    1.3831312894
O        2.3115694175   -1.0971210349    2.6278209799
H        1.6047983499   -0.6673774695    2.1301720551
H        2.2841256609   -2.0142411272    2.3278247160
5    
Iteration 4 Energy -460.97213363
H       -0.0093625611    0.0046977275    0.0074055714
Cl      -0.2307696598    0.1056659733    1.3747504063
O        2.3219598448   -1.1045719331    2.6318458483
H        1.6167250214   -0.6657375147    2.1399845638
H        2.2856294652   -2.0194551035    2.3260206213
5    
Iteration 5 Energy -460.97230009
H       -0.0100677658    0.0050251624    0.0075736683
Cl      -0.2380628491    0.1090416360    1.3705414659
O        2.3272002741   -1.1083683887    2.6338630494
H        1.6227955270   -0.6648911933    2.1449855029
H        2.2863161212   -2.0220596155    2.3250637464
5    
Iteration 6 Energy -460.97237794
H       -0.0104249165    0.0051903390    0.0076463875
Cl      -0.2416901595    0.1107216153    1.3684554851
O        2.3298139199   -1.1102732228    2.6348655561
H        1.6258383198   -0.6644614877    2.1474954940
H        2.2866363743   -2.0233522209    2.3245711410
5    
Iteration 7 Energy -460.97241578
H       -0.0106051190    0.0052735510    0.0076810094
Cl      -0.2435008047    0.1115604947    1.3674148384
O        2.3311212791   -1.1112296986    2.6353659616
H        1.6273647425   -0.6642431010    2.1487562158
H        2.2867888639   -2.0239972690    2.3243190509
5    
Iteration 8 Energy -460.97244435
H       -0.0107442306    0.0053377191    0.0077068175
Cl      -0.2448902461    0.1122043570    1.3666165843
O        2.3321255522   -1.1119659293    2.6357499085
H        1.6285391921   -0.6640741387    2.1497267571
H        2.2869029708   -2.0244920461    2.3241232318
5    
Iteration 9 Energy -460.97247251
H       -0.0108839391    0.0054021005    0.0077319466
Cl      -0.2462788432    0.1128479356    1.3658191104
O        2.3331300047   -1.1127034964    2.6361335507
H        1.6297154431   -0.6639043021    2.1506991436
H        2.2870147256   -2.0249862557    2.3239257203
5    
Iteration 10 Energy -460.97250026
H       -0.0110242417    0.0054666933    0.0077563981
Cl      -0.2476665920    0.1134912290    1.3650224201
O        2.3341346301   -1.1134423999    2.6365168833
H        1.6308934990   -0.6637335956    2.1516733736
H        2.2871241215   -2.0254798879    2.3237265159
5    
Iteration 11 Energy -460.97252760
H       -0.0111651336    0.0055314948    0.0077801733
Cl      -0.2490534901    0.1141342360    1.3642265170
O        2.3351394211   -1.1141826400    2.6368999014
H        1.6320733628   -0.6635620239    2.1526494456
H        2.2872311516   -2.0259729324    2.3235256176
5    
Iteration 12 Energy -460.97255453
H       -0.0113066095    0.0055965023    0.0078032734
Cl      -0.2504395353    0.1147769557    1.3634314045
O        2.3361443707   -1.1149242166    2.6372826003
H        1.6332550373   -0.6633895915    2.1536273580
H        2.2873358093   -2.0264653790    2.3233230250
5    
Iteration 13 Energy -460.97258106
H       -0.0114486645    0.0056617130    0.0078256999
Cl      -0.2518247254    0.1154193870    1.3626370858
O        2.3371494716   -1.1156671295    2.6376649749
H        1.6344385253   -0.6632163033    2.1546071090
H        2.2874380879   -2.0269572173    2.3231187375
5    
Iteration 14 Energy -460.97260719
H       -0.0115912934    0.0057271244    0.0078474544
Cl      -0.2532090579    0.1160615287    1.3618435643
O        2.3381547168   -1.1164113787    2.6380470205
H        1.6356238297   -0.6630421639    2.1555886972
H        2.2875379805   -2.0274484370    2.3229127543
5    
Iteration 15 Energy -460.97263292
H       -0.0117344913    0.0057927336    0.0078685383
Cl      -0.2545925306    0.1167033797    1.3610508431
O        2.3391600989   -1.1171569641    2.6384287322
H        1.6368109532   -0.6628671783    2.1565721206
H        2.2876354807   -2.0279390277    2.3227050751
5    
Iteration 16 Energy -460.97265827
H       -0.0118782530    0.0058585381    0.0078889534
Cl      -0.2559751410    0.1173449390    1.3602589252
O        2.3401656107   -1.1179038854    2.6388101050
H        1.6379998985   -0.6626913514    2.1575573778
H        2.2877305819   -2.0284289789    2.3224956994
5    
Iteration 17 Energy -460.97268323
H       -0.0120225736    0.0059245352    0.0079087014
Cl      -0.2573568868    0.1179862053    1.3594678136
O        2.3411712449   -1.1186521426    2.6391911340
H        1.6391906682   -0.6625146881    2.1585444668
H        2.2878232775   -2.0289182802    2.3222846267
5    
Iteration 18 Energy -460.97270780
H       -0.0121674480    0.0059907222    0.0079277841
Cl      -0.2587377656    0.1186271776    1.3586775113
O        2.3421769942   -1.1194017353    2.6395718143
H        1.6403832651   -0.6623371935    2.1595333861
H        2.2879135610   -2.0294069210    2.3220718566
5    
Iteration 19 Energy -460.97273199
H       -0.0123128713    0.0060570965    0.0079462033
Cl      -0.2601177749    0.1192678547    1.3578880210
O        2.3431828513   -1.1201526633    2.6399521409
H        1.6415776918   -0.6621588728    2.1605241338
H        2.2880014262   -2.0298948907    2.3218573889
5    
Iteration 20 Energy -460.97275581
H       -0.0124588385    0.0061236553    0.0079639609
Cl      -0.2614969123    0.1199082354    1.3570993455
O        2.3441888089   -1.1209049263    2.6403321090
H        1.6427739508   -0.6619797311    2.1615167082
H        2.2880868665   -2.0303821787    2.3216412232
5    
Iteration 21 Energy -460.97277925
H       -0.0126053445    0.0061903962    0.0079810590
Cl      -0.2628751753    0.1205483185    1.3563114874
O        2.3451948594   -1.1216585241    2.6407117136
H        1.6439720447   -0.6617997736    2.1625111076
H        2.2881698757   -2.0308687744    2.3214233592
5    
Iteration 22 Energy -460.97280232
H       -0.0127523845    0.0062573165    0.0079974996
Cl      -0.2642525615    0.1211881029    1.3555244494
O        2.3462009956   -1.1224134563    2.6410909498
H        1.6451719760   -0.6616190057    2.1635073300
H        2.2882504475   -2.0313546670    2.3212037969
5    
Iteration 23 Energy -460.97282502
H       -0.0128999536    0.0063244135    0.0080132848
Cl      -0.2656290684    0.1218275873    1.3547382338
O        2.3472072101   -1.1231697225    2.6414698125
H        1.6463737472   -0.6614374328    2.1645053737
H        2.2883285757   -2.0318398459    2.3209825359
5    
Iteration 24 Energy -460.97284736
H       -0.0130480468    0.0063916847    0.0080284167
Cl      -0.2670046934    0.1224667705    1.3539528433
O        2.3482134953   -1.1239273224    2.6418482969
H        1.6475773608   -0.6612550602    2.1655052369
H        2.2884042542   -2.0323243003    2.3207595763
5    
Iteration 25 Energy -460.97286934
H       -0.0131966591    0.0064591276    0.0080428977
Cl      -0.2683794341    0.1231056514    1.3531682800
O        2.3492198439   -1.1246862555    2.6422263980
H        1.6487828192   -0.6610718936    2.1665069176
H        2.2884774768   -2.0328080192    2.3205349180
5    
Iteration 26 Energy -460.97289096
H       -0.0133457858    0.0065267394    0.0080567300
Cl      -0.2697532879    0.1237442286    1.3523845462
O        2.3502262483   -1.1254465214    2.6426041107
H        1.6499901249   -0.6608879385    2.1675104142
H        2.2885482375   -2.0332909920    2.3203085609
5    
Iteration 27 Energy -460.97291223
H       -0.0134954220    0.0065945177    0.0080699160
Cl      -0.2711262523    0.1243825010    1.3516016442
O        2.3512327010   -1.1262081198    2.6429814302
H        1.6511992801   -0.6607032006    2.1685157246
H        2.2886165304   -2.0337732078    2.3200805050
5    
Iteration 28 Energy -460.97293316
H       -0.0136455628    0.0066624600    0.0080824581
Cl      -0.2724983247    0.1250204674    1.3508195759
O        2.3522391946   -1.1269710500    2.6433583515
H        1.6524102874   -0.6605176855    2.1695228470
H        2.2886823494   -2.0342546555    2.3198507505
5    
Iteration 29 Energy -460.97295373
H       -0.0137962035    0.0067305636    0.0080943588
Cl      -0.2738695026    0.1256581264    1.3500383435
O        2.3532457215   -1.1277353116    2.6437348695
H        1.6536231489   -0.6603313991    2.1705317795
H        2.2887456887   -2.0347353243    2.3196192975
5    
Iteration 30 Energy -460.97297396
H       -0.0139473391    0.0067988260    0.0081056207
Cl      -0.2752397834    0.1262954769    1.3492579489
O        2.3542522742   -1.1285009041    2.6441109794
H        1.6548378671   -0.6601443472    2.1715425201
H        2.2888065425   -2.0352152032    2.3193861462
5    
Iteration 31 Energy -460.97299385
H       -0.0140989649    0.0068672448    0.0081162463
Cl      -0.2766091646    0.1269325176    1.3484783939
O        2.3552588451   -1.1292678269    2.6444866760
H        1.6560544442   -0.6599565356    2.1725550670
H        2.2888649049   -2.0356942811    2.3191512967
5    
Iteration 32 Energy -460.97301341
H       -0.0142510761    0.0069358174    0.0081262383
Cl      -0.2779776436    0.1275692472    1.3476996804
O        2.3562654267   -1.1300360794    2.6448619545
H        1.6572728824   -0.6597679705    2.1735694182
H        2.2889207704   -2.0361725470    2.3189147494
5    
Iteration 33 Energy -460.97303263
H       -0.0144036681    0.0070045413    0.0081355994
Cl      -0.2793452177    0.1282056645    1.3469218099
O        2.3572720113   -1.1308056611    2.6452368099
H        1.6584931841   -0.6595786577    2.1745855717
H        2.2889741333   -2.0366499899    2.3186765045
5    
Iteration 34 Energy -460.97305152
H       -0.0145567361    0.0070734141    0.0081443323
Cl      -0.2807118845    0.1288417682    1.3461447843
O        2.3582785914   -1.1315765713    2.6456112371
H        1.6597153515   -0.6593886035    2.1756035256
H        2.2890249879   -2.0371265987    2.3184365625
5    
Iteration 35 Energy -460.97307009
H       -0.0147102753    0.0071424333    0.0081524399
Cl      -0.2820776413    0.1294775571    1.3453686050
O        2.3592851595   -1.1323488095    2.6459852311
H        1.6609393867   -0.6591978140    2.1766232779
H        2.2890733287   -2.0376023621    2.3181949237
5    
Iteration 36 Energy -460.97308833
H       -0.0148642811    0.0072115965    0.0081599251
Cl      -0.2834424856    0.1301130298    1.3445932734
O        2.3602917078   -1.1331223749    2.6463587870
H        1.6621652919   -0.6590062954    2.1776448267
H        2.2891191503   -2.0380772690    2.3179515886
5    
Iteration 37 Energy -460.97310625
H       -0.0150187489    0.0072809011    0.0081667907
Cl      -0.2848064147    0.1307481851    1.3438187911
O        2.3612982287   -1.1338972669    2.6467318999
H        1.6633930694   -0.6588140541    2.1786681698
H        2.2891624473   -2.0385513083    2.3177065577
5    
Iteration 38 Energy -460.97312386
H       -0.0151736740    0.0073503449    0.0081730397
Cl      -0.2861694262    0.1313830217    1.3430451593
O        2.3623047148   -1.1346734848    2.6471045646
H        1.6646227212   -0.6586210964    2.1796933053
H        2.2892032142   -2.0390244687    2.3174598316
5    
Iteration 39 Energy -460.97314115
H       -0.0153290517    0.0074199253    0.0081786752
Cl      -0.2875315173    0.1320175384    1.3422723793
O        2.3633111582   -1.1354510280    2.6474767762
H        1.6658542495   -0.6584274287    2.1807202312
H        2.2892414458   -2.0394967389    2.3172114109
5    
Iteration 40 Energy -460.97315814
H       -0.0154848776    0.0074896400    0.0081837001
Cl      -0.2888926857    0.1326517339    1.3415004523
O        2.3643175514   -1.1362298955    2.6478485297
H        1.6670876565   -0.6582330576    2.1817489454
H        2.2892771370   -2.0399681077    2.3169612962
5    
Iteration 41 Energy -460.97317481
H       -0.0156411470    0.0075594866    0.0081881177
Cl      -0.2902529286    0.1332856069    1.3407293794
O        2.3653238868   -1.1370100869    2.6482198202
H        1.6683229442   -0.6580379895    2.1827794460
H        2.2893102824   -2.0404385638    2.3167094882
5    
Iteration 42 Energy -460.97319119
H       -0.0157978554    0.0076294627    0.0081919311
Cl      -0.2916122435    0.1339191562    1.3399591616
O        2.3663301567   -1.1377916011    2.6485906426
H        1.6695601147   -0.6578422312    2.1838117307
H        2.2893408770   -2.0409080959    2.3164559876
5    
Iteration 43 Energy -460.97320726
H       -0.0159549984    0.0076995659    0.0081951435
Cl      -0.2929706278    0.1345523804    1.3391897999
O        2.3673363534   -1.1385744376    2.6489609919
H        1.6707991701   -0.6576457893    2.1848457977
H        2.2893689157   -2.0413766925    2.3162007953
5    
Iteration 44 Energy -460.97322304
H       -0.0161125713    0.0077697940    0.0081977581
Cl      -0.2943280790    0.1351852783    1.3384212951
O        2.3683424693   -1.1393585954    2.6493308633
H        1.6720401124   -0.6574486706    2.1858816448
H        2.2893943937   -2.0418443424    2.3159439122
5    
Iteration 45 Energy -460.97323852
H       -0.0162705697    0.0078401446    0.0081997782
Cl      -0.2956845946    0.1358178486    1.3376536481
O        2.3693484968   -1.1401440739    2.6497002516
H        1.6732829438   -0.6572508818    2.1869192699
H        2.2894173058   -2.0423110341    2.3156853390
5    
Iteration 46 Energy -460.97325371
H       -0.0164289893    0.0079106154    0.0082012073
Cl      -0.2970401719    0.1364500901    1.3368868597
O        2.3703544282   -1.1409308720    2.6500691519
H        1.6745276662   -0.6570524299    2.1879586709
H        2.2894376474   -2.0427767563    2.3154250768
5    
Iteration 47 Energy -460.97326862
H       -0.0165878255    0.0079812041    0.0082020485
Cl      -0.2983948086    0.1370820015    1.3361209304
O        2.3713602558   -1.1417189891    2.6504375592
H        1.6757742817   -0.6568533219    2.1889998459
H        2.2894554135   -2.0432414974    2.3151631266
5    
Iteration 48 Energy -460.97328324
H       -0.0167470740    0.0080519084    0.0082023054
Cl      -0.2997485019    0.1377135816    1.3353558609
O        2.3723659721   -1.1425084243    2.6508054687
H        1.6770227923   -0.6566535646    2.1900427925
H        2.2894705995   -2.0437052460    2.3148994893
5    
Iteration 49 Energy -460.97329758
H       -0.0169067305    0.0081227260    0.0082019815
Cl      -0.3011012495    0.1383448290    1.3345916518
O        2.3733715693   -1.1432991766    2.6511728752
H        1.6782732001   -0.6564531652    2.1910875088
H        2.2894832007   -2.0441679907    2.3146341661
5    
Iteration 50 Energy -460.97331164
H       -0.0170667906    0.0081936547    0.0082010802
Cl      -0.3024530489    0.1389757426    1.3338283035
O        2.3743770398   -1.1440912452    2.6515397738
H        1.6795255069   -0.6562521309    2.1921339927
H        2.2894932125   -2.0446297199    2.3143671580
5    
Iteration 51 Energy -460.97332542
H       -0.0172272500    0.0082646922    0.0081996050
Cl      -0.3038038975    0.1396063211    1.3330658164
O        2.3753823760   -1.1448846293    2.6519061597
H        1.6807797149   -0.6560504687    2.1931822419
H        2.2895006303   -2.0450904221    2.3140984664
5    
Iteration 52 Energy -460.97333893
H       -0.0173881044    0.0083358364    0.0081975596
Cl      -0.3051537928    0.1402365633    1.3323041908
O        2.3763875702   -1.1456793278    2.6522720277
H        1.6820358260   -0.6558481861    2.1942322544
H        2.2895054497   -2.0455500857    2.3138280923
5    
Iteration 53 Energy -460.97335218
H       -0.0175493496    0.0084070850    0.0081949476
Cl      -0.3065027325    0.1408664678    1.3315434269
O        2.3773926148   -1.1464753399    2.6526373730
H        1.6832938421   -0.6556452902    2.1952840281
H        2.2895076662   -2.0460086993    2.3135560371
5    
Iteration 54 Energy -460.97336516
H       -0.0177109813    0.0084784359    0.0081917725
Cl      -0.3078507141    0.1414960336    1.3307835251
O        2.3783975022   -1.1472726646    2.6530021906
H        1.6845537654   -0.6554417884    2.1963375608
H        2.2895072756   -2.0464662512    2.3132823022
5    
Iteration 55 Energy -460.97337787
H       -0.0178729954    0.0085498868    0.0081880381
Cl      -0.3091977351    0.1421252593    1.3300244854
O        2.3794022247   -1.1480713010    2.6533664756
H        1.6858155976   -0.6552376883    2.1973928503
H        2.2895042735   -2.0469227299    2.3130068888
5    
Iteration 56 Energy -460.97339033
H       -0.0180353877    0.0086214356    0.0081837481
Cl      -0.3105437932    0.1427541438    1.3292663078
O        2.3804067748   -1.1488712481    2.6537302231
H        1.6870793409   -0.6550329973    2.1984498946
H        2.2894986556   -2.0473781237    2.3127297985
5    
Iteration 57 Energy -460.97340253
H       -0.0181981541    0.0086930801    0.0081789063
Cl      -0.3118888859    0.1433826859    1.3285089924
O        2.3814111448   -1.1496725049    2.6540934281
H        1.6883449972   -0.6548277230    2.1995086914
H        2.2894904180   -2.0478324210    2.3124510326
5    
Iteration 58 Energy -460.97341447
H       -0.0183612904    0.0087648183    0.0081735163
Cl      -0.3132330108    0.1440108842    1.3277525390
O        2.3824153271   -1.1504750706    2.6544560857
H        1.6896125684   -0.6546218730    2.2005692386
H        2.2894795564   -2.0482856103    2.3121705927
5    
Iteration 59 Energy -460.97342616
H       -0.0185247926    0.0088366480    0.0081675821
Cl      -0.3145761657    0.1446387378    1.3269969476
O        2.3834193141   -1.1512789440    2.6548181910
H        1.6908820565   -0.6544154549    2.2016315340
H        2.2894660668   -2.0487376797    2.3118884804
5    
Iteration 60 Energy -460.97343761
H       -0.0186886566    0.0089085671    0.0081611075
Cl      -0.3159183481    0.1452662453    1.3262422180
O        2.3844230983   -1.1520841242    2.6551797390
H        1.6921534634   -0.6542084766    2.2026955756
H        2.2894499453   -2.0491886177    2.3116046973
5    
Iteration 61 Energy -460.97344881
H       -0.0188528784    0.0089805735    0.0081540963
Cl      -0.3172595558    0.1458934056    1.3254883498
O        2.3854266720   -1.1528906102    2.6555407249
H        1.6934267912   -0.6540009458    2.2037613610
H        2.2894311880   -2.0496384126    2.3113192450
5    
Iteration 62 Energy -460.97345976
H       -0.0190174540    0.0090526652    0.0081465524
Cl      -0.3185997864    0.1465202175    1.3247353428
O        2.3864300278   -1.1536984010    2.6559011438
H        1.6947020418   -0.6537928704    2.2048288882
H        2.2894097911   -2.0500870527    2.3110321253
5    
Iteration 63 Energy -460.97347048
H       -0.0191823795    0.0091248402    0.0081384798
Cl      -0.3199390377    0.1471466799    1.3239831965
O        2.3874331580   -1.1545074954    2.6562609909
H        1.6959792170   -0.6535842584    2.2058981549
H        2.2893857508   -2.0505345263    2.3107433398
5    
Iteration 64 Energy -460.97348096
H       -0.0193476509    0.0091970963    0.0081298824
Cl      -0.3212773075    0.1477727916    1.3232319106
O        2.3884360552   -1.1553178926    2.6566202611
H        1.6972583190   -0.6533751176    2.2069691590
H        2.2893590633   -2.0509808217    2.3104528905
5    
Iteration 65 Energy -460.97349121
H       -0.0195132643    0.0092694316    0.0081207641
Cl      -0.3226145934    0.1483985515    1.3224814845
O        2.3894387118   -1.1561295914    2.6569789496
H        1.6985393496   -0.6531654562    2.2080418984
H        2.2893297252   -2.0514259271    2.3101607791
5    
Iteration 66 Energy -460.97350122
H       -0.0196792159    0.0093418441    0.0081111291
Cl      -0.3239508932    0.1490239585    1.3217319176
O        2.3904411202   -1.1569425908    2.6573370517
H        1.6998223108   -0.6529552823    2.2091163707
H        2.2892977328   -2.0518698308    2.3098670075
5    
Iteration 67 Energy -460.97351101
H       -0.0198455019    0.0094143318    0.0081009813
Cl      -0.3252862049    0.1496490114    1.3209832093
O        2.3914432730   -1.1577568898    2.6576945624
H        1.7011072046   -0.6527446039    2.2101925740
H        2.2892630826   -2.0523125211    2.3095715778
5    
Iteration 68 Energy -460.97352057
H       -0.0200121184    0.0094868928    0.0080903247
Cl      -0.3266205262    0.1502737091    1.3202353589
O        2.3924451628   -1.1585724872    2.6580514769
H        1.7023940329   -0.6525334294    2.2112705059
H        2.2892257711   -2.0527539862    2.3092744918
5    
Iteration 69 Energy -460.97352991
H       -0.0201790616    0.0095595250    0.0080791635
Cl      -0.3279538550    0.1508980506    1.3194883657
O        2.3934467820   -1.1593893821    2.6584077903
H        1.7036827978   -0.6523217669    2.2123501643
H        2.2891857951   -2.0531942144    2.3089757516
5    
Iteration 70 Energy -460.97353903
H       -0.0203463278    0.0096322266    0.0080675016
Cl      -0.3292861892    0.1515220348    1.3187422289
O        2.3944481231   -1.1602075733    2.6587634979
H        1.7049735011   -0.6521096249    2.2134315470
H        2.2891431513   -2.0536331938    2.3086753594
5    
Iteration 71 Energy -460.97354793
H       -0.0205139134    0.0097049956    0.0080553433
Cl      -0.3306175266    0.1521456605    1.3179969475
O        2.3954491789   -1.1610270597    2.6591185947
H        1.7062661449   -0.6518970117    2.2145146519
H        2.2890978362   -2.0540709127    2.3083733171
5    
Iteration 72 Energy -460.97355662
H       -0.0206818146    0.0097778301    0.0080426927
Cl      -0.3319478653    0.1527689268    1.3172525207
O        2.3964499417   -1.1618478403    2.6594730761
H        1.7075607312   -0.6516839358    2.2155994767
H        2.2890498470   -2.0545073593    2.3080696271
5    
Iteration 73 Energy -460.97356510
H       -0.0208500277    0.0098507284    0.0080295539
Cl      -0.3332772033    0.1533918325    1.3165089475
O        2.3974504042   -1.1626699139    2.6598269371
H        1.7088572619   -0.6514704056    2.2166860193
H        2.2889991803   -2.0549425218    2.3077642915
5    
Iteration 74 Energy -460.97357336
H       -0.0210185492    0.0099236884    0.0080159311
Cl      -0.3346055384    0.1540143767    1.3157662269
O        2.3984505591   -1.1634932795    2.6601801731
H        1.7101557391   -0.6512564297    2.2177742775
H        2.2889458332   -2.0553763884    2.3074573125
5    
Iteration 75 Energy -460.97358142
H       -0.0211873755    0.0099967084    0.0080018284
Cl      -0.3359328687    0.1546365584    1.3150243577
O        2.3994503989   -1.1643179360    2.6605327792
H        1.7114561647   -0.6510420168    2.2188642491
H        2.2888898027   -2.0558089473    2.3071486926
5    
Iteration 76 Energy -460.97358928
H       -0.0213565030    0.0100697865    0.0079872501
Cl      -0.3372591923    0.1552583764    1.3142833389
O        2.4004499163   -1.1651438823    2.6608847507
H        1.7127585408   -0.6508271755    2.2199559319
H        2.2888310858   -2.0562401866    2.3068384340
5    
Iteration 77 Energy -460.97359693
H       -0.0215259282    0.0101429209    0.0079722004
Cl      -0.3385845073    0.1558798299    1.3135431692
O        2.4014491040   -1.1659711172    2.6612360828
H        1.7140628694   -0.6506119145    2.2210493238
H        2.2887696799   -2.0566700946    2.3065265391
5    
Iteration 78 Energy -460.97360439
H       -0.0216956477    0.0102161098    0.0079566835
Cl      -0.3399088118    0.1565009179    1.3128038473
O        2.4024479546   -1.1667996396    2.6615867707
H        1.7153691526   -0.6503962426    2.2221444227
H        2.2887055820   -2.0570986593    2.3062130105
