[Molden Format]
[Title]
 Molden file created by orca_2mkl for BaseName=CCSD-orbopt

[Atoms] AU
C    1   6          0.0000000000         0.0000000000         0.0000000000
O    2   8          0.0000000000         0.0000000000         2.1342566957
[GTO]
  1 0
s   8 1.0
     6665.0000000000         0.3635842998
     1000.0000000000         0.6749857928
      228.0000000000         1.1316199410
       64.7100000000         1.6530092121
       21.0600000000         1.9238206437
        7.4950000000         1.4472783162
        2.7970000000         0.4391631292
        0.5215000000         0.0066458037
s   8 1.0
     6665.0000000000        -0.1541797483
     1000.0000000000        -0.2937853735
      228.0000000000        -0.4808958038
       64.7100000000        -0.7614343161
       21.0600000000        -0.9001038923
        7.4950000000        -0.9726113518
        2.7970000000        -0.3940419460
        0.5215000000         0.4783944249
s   1 1.0
        0.1596000000         0.1799636353
p   3 1.0
        9.4390000000         1.3437371095
        2.0020000000         1.0631680879
        0.5456000000         0.5082318338
p   1 1.0
        0.1517000000         0.1349497436
d   1 1.0
        0.5500000000         1.0013935509

  2 0
s   8 1.0
    11720.0000000000         0.5697017158
     1759.0000000000         1.0583521000
      400.8000000000         1.7762810558
      113.7000000000         2.5994118899
       37.0300000000         3.0268459958
       13.2700000000         2.2223943344
        5.0250000000         0.6477954310
        1.0130000000         0.0111186960
s   8 1.0
    11720.0000000000        -0.2524342625
     1759.0000000000        -0.4804910908
      400.8000000000        -0.7862996613
      113.7000000000        -1.2541699039
       37.0300000000        -1.4912179216
       13.2700000000        -1.6108317779
        5.0250000000        -0.5497983753
        1.0130000000         0.7882822080
s   1 1.0
        0.3023000000         0.2905619240
p   3 1.0
       17.7000000000         3.2436193456
        3.8540000000         2.5672796523
        1.0460000000         1.1176693232
p   1 1.0
        0.2753000000         0.2842482844
d   1 1.0
        1.1850000000         3.8368709885

[5D]
[7F]
[9G]
[MO]
 Sym=     1a
 Ene= -2.06693601767737E+01
 Spin= Alpha
 Occup= 2.000000
  1      -0.000088982977
  2       0.000032219726
  3      -0.001866749364
  4       0.000000000000
  5      -0.000000000000
  6       0.000278420292
  7      -0.000000000000
  8       0.000000000000
  9      -0.001173029121
 10       0.000573774855
 11      -0.000000000000
 12      -0.000000000000
 13       0.000000000000
 14       0.000000000000
 15      -1.001170878841
 16      -0.001634011247
 17       0.004921620773
 18       0.000000000000
 19       0.000000000000
 20       0.001764414691
 21       0.000000000000
 22      -0.000000000000
 23      -0.001269178199
 24      -0.000398663203
 25      -0.000000000000
 26      -0.000000000000
 27      -0.000000000000
 28      -0.000000000000
 Sym=     1a
 Ene= -1.13671122414562E+01
 Spin= Alpha
 Occup= 2.000000
  1       1.001305499334
  2       0.002097131507
  3      -0.000616063080
  4      -0.000000000000
  5       0.000000000000
  6       0.003833470166
  7      -0.000000000000
  8       0.000000000000
  9       0.000950333271
 10       0.001911917772
 11      -0.000000000000
 12       0.000000000000
 13      -0.000000000000
 14      -0.000000000000
 15      -0.000375331664
 16       0.000662379058
 17      -0.003969834805
 18      -0.000000000000
 19       0.000000000000
 20      -0.000317302093
 21       0.000000000000
 22      -0.000000000000
 23       0.002523813009
 24       0.000055644751
 25       0.000000000000
 26       0.000000000000
 27       0.000000000000
 28       0.000000000000
 Sym=     1a
 Ene= -1.52210292706379E+00
 Spin= Alpha
 Occup= 1.985221
  1      -0.017909884175
  2       0.165453893105
  3       0.112901608318
  4       0.000000000000
  5       0.000000000000
  6       0.121592272760
  7       0.000000000000
  8       0.000000000000
  9       0.008770699252
 10       0.033361220016
 11      -0.000000000000
 12       0.000000000000
 13       0.000000000000
 14       0.000000000000
 15      -0.005924064860
 16       0.464608623992
 17       0.417209339255
 18       0.000000000000
 19       0.000000000000
 20      -0.006201942424
 21       0.000000000000
 22       0.000000000000
 23       0.061693655001
 24       0.010696021191
 25      -0.000000000000
 26      -0.000000000000
 27      -0.000000000000
 28      -0.000000000000
 Sym=     1a
 Ene= -8.01996422566297E-01
 Spin= Alpha
 Occup= 1.971517
  1      -0.006030011297
  2      -0.251117432187
  3       0.023831360917
  4      -0.000000000000
  5      -0.000000000000
  6      -0.299878442483
  7      -0.000000000000
  8      -0.000000000000
  9      -0.004978527937
 10      -0.032745356684
 11      -0.000000000000
 12      -0.000000000000
 13       0.000000000000
 14       0.000000000000
 15       0.004546480144
 16       0.094751661475
 17       0.249995039572
 18      -0.000000000000
 19      -0.000000000000
 20       0.574149885869
 21      -0.000000000000
 22      -0.000000000000
 23       0.293823886104
 24      -0.030259039407
 25       0.000000000000
 26       0.000000000000
 27       0.000000000000
 28       0.000000000000
 Sym=     1a
 Ene= -6.33897071981866E-01
 Spin= Alpha
 Occup= 1.948446
  1      -0.000000000000
  2       0.000000000000
  3       0.000000000000
  4       0.148611223497
  5       0.279868582243
  6      -0.000000000000
  7       0.066012066878
  8       0.124315668314
  9      -0.000000000000
 10      -0.000000000000
 11       0.028016520647
 12       0.052761451849
 13      -0.000000000000
 14      -0.000000000000
 15      -0.000000000000
 16      -0.000000000000
 17      -0.000000000000
 18       0.258002393302
 19       0.485876923222
 20       0.000000000000
 21       0.156853873187
 22       0.295391357902
 23       0.000000000000
 24      -0.000000000000
 25      -0.013132107644
 26      -0.024730732053
 27      -0.000000000000
 28       0.000000000000
 Sym=     1a
 Ene= -6.33897071981856E-01
 Spin= Alpha
 Occup= 1.948446
  1      -0.000000000000
  2       0.000000000000
  3       0.000000000000
  4       0.279868582243
  5      -0.148611223497
  6      -0.000000000000
  7       0.124315668314
  8      -0.066012066878
  9      -0.000000000000
 10      -0.000000000000
 11       0.052761451849
 12      -0.028016520647
 13       0.000000000000
 14       0.000000000000
 15      -0.000000000000
 16      -0.000000000000
 17      -0.000000000000
 18       0.485876923222
 19      -0.258002393302
 20       0.000000000000
 21       0.295391357902
 22      -0.156853873187
 23       0.000000000000
 24      -0.000000000000
 25      -0.024730732053
 26       0.013132107644
 27       0.000000000000
 28       0.000000000000
 Sym=     1a
 Ene= -5.48958020183011E-01
 Spin= Alpha
 Occup= 1.948015
  1       0.004141847567
  2      -0.361566446496
  3      -0.611133519880
  4       0.000000000000
  5       0.000000000000
  6       0.386450733135
  7       0.000000000000
  8       0.000000000000
  9       0.157581357175
 10       0.031888377270
 11       0.000000000000
 12       0.000000000000
 13      -0.000000000000
 14       0.000000000000
 15       0.002486933617
 16       0.125613502067
 17       0.150372946084
 18       0.000000000000
 19       0.000000000000
 20      -0.104294530987
 21       0.000000000000
 22       0.000000000000
 23      -0.071270326934
 24       0.006626782777
 25      -0.000000000000
 26      -0.000000000000
 27      -0.000000000000
 28      -0.000000000000
 Sym=     1a
 Ene= 1.54142771369951E-01
 Spin= Alpha
 Occup= 0.053361
  1      -0.000000000000
  2      -0.000000000000
  3      -0.000000000000
  4      -0.672099246207
  5       0.072096344604
  6      -0.000000000000
  7      -0.265704270820
  8       0.028502199310
  9       0.000000000000
 10      -0.000000000000
 11       0.027496940080
 12      -0.002949607337
 13       0.000000000000
 14       0.000000000000
 15      -0.000000000000
 16      -0.000000000000
 17       0.000000000000
 18       0.638095593391
 19      -0.068448759690
 20       0.000000000000
 21       0.033978227655
 22      -0.003644857547
 23      -0.000000000000
 24       0.000000000000
 25       0.043066331624
 26      -0.004619741955
 27      -0.000000000000
 28       0.000000000000
 Sym=     1a
 Ene= 1.54142771369952E-01
 Spin= Alpha
 Occup= 0.053361
  1       0.000000000000
  2       0.000000000000
  3       0.000000000000
  4       0.072096344604
  5       0.672099246207
  6       0.000000000000
  7       0.028502199310
  8       0.265704270820
  9       0.000000000000
 10       0.000000000000
 11      -0.002949607337
 12      -0.027496940080
 13       0.000000000000
 14      -0.000000000000
 15       0.000000000000
 16       0.000000000000
 17      -0.000000000000
 18      -0.068448759690
 19      -0.638095593391
 20       0.000000000000
 21      -0.003644857547
 22      -0.033978227655
 23       0.000000000000
 24       0.000000000000
 25      -0.004619741955
 26      -0.043066331624
 27      -0.000000000000
 28       0.000000000000
 Sym=     1a
 Ene= 3.82491974211721E-01
 Spin= Alpha
 Occup= 0.021067
  1      -0.082147720846
  2      -0.374734706484
  3      -0.208652650642
  4       0.000000000000
  5       0.000000000000
  6      -0.878560778154
  7      -0.000000000000
  8      -0.000000000000
  9      -0.094193204805
 10       0.058090711660
 11       0.000000000000
 12       0.000000000000
 13      -0.000000000000
 14      -0.000000000000
 15       0.129044175291
 16       0.450309110398
 17       0.261106303418
 18      -0.000000000000
 19       0.000000000000
 20      -0.817774413400
 21       0.000000000000
 22      -0.000000000000
 23       0.064733887132
 24      -0.067695236202
 25      -0.000000000000
 26       0.000000000000
 27      -0.000000000000
 28       0.000000000000
 Sym=     1a
 Ene= 6.72170266592726E-01
 Spin= Alpha
 Occup= 0.011486
  1      -0.301779021997
  2      -0.780008602178
  3       0.963401949747
  4       0.000000000000
  5      -0.000000000000
  6       0.216909790025
  7      -0.000000000000
  8      -0.000000000000
  9      -0.051742562645
 10      -0.084749934895
 11       0.000000000000
 12       0.000000000000
 13      -0.000000000000
 14      -0.000000000000
 15      -0.355404372762
 16      -0.920693706855
 17       0.662733654262
 18       0.000000000000
 19      -0.000000000000
 20      -0.499983317944
 21      -0.000000000000
 22       0.000000000000
 23       0.586447000987
 24      -0.018964839566
 25      -0.000000000000
 26       0.000000000000
 27      -0.000000000000
 28      -0.000000000000
 Sym=     1a
 Ene= 6.72170266592731E-01
 Spin= Alpha
 Occup= 0.008087
  1       0.432987758651
  2       1.106106858930
  3      -1.204883344179
  4      -0.000000000000
  5      -0.000000000000
  6      -0.440087340067
  7      -0.000000000000
  8       0.000000000000
  9       0.437437436134
 10       0.023826012314
 11       0.000000000000
 12      -0.000000000000
 13      -0.000000000000
 14      -0.000000000000
 15      -0.331398158534
 16      -0.817473756974
 17       0.898641077078
 18      -0.000000000000
 19       0.000000000000
 20      -0.174258721650
 21       0.000000000000
 22      -0.000000000000
 23       0.192884504516
 24       0.048005580920
 25      -0.000000000000
 26       0.000000000000
 27      -0.000000000000
 28      -0.000000000000
 Sym=     1a
 Ene= 7.26388397069629E-01
 Spin= Alpha
 Occup= 0.006938
  1      -0.000000000000
  2      -0.000000000000
  3      -0.000000000000
  4       0.173350237695
  5       0.389272955085
  6      -0.000000000000
  7      -0.017233261978
  8      -0.038698780602
  9      -0.000000000000
 10      -0.000000000000
 11      -0.222546882489
 12      -0.499748276917
 13       0.000000000000
 14      -0.000000000000
 15      -0.000000000000
 16      -0.000000000000
 17       0.000000000000
 18       0.305712521731
 19       0.686503914403
 20       0.000000000000
 21      -0.305882100395
 22      -0.686884717962
 23      -0.000000000000
 24      -0.000000000000
 25       0.001112079165
 26       0.002497269969
 27       0.000000000000
 28      -0.000000000000
 Sym=     1a
 Ene= 1.01685116206195E+00
 Spin= Alpha
 Occup= 0.006938
  1       0.000000000000
  2       0.000000000000
  3      -0.000000000000
  4       0.389272955085
  5      -0.173350237695
  6      -0.000000000000
  7      -0.038698780602
  8       0.017233261978
  9       0.000000000000
 10      -0.000000000000
 11      -0.499748276917
 12       0.222546882489
 13       0.000000000000
 14       0.000000000000
 15      -0.000000000000
 16      -0.000000000000
 17       0.000000000000
 18       0.686503914403
 19      -0.305712521731
 20      -0.000000000000
 21      -0.686884717962
 22       0.305882100395
 23      -0.000000000000
 24       0.000000000000
 25       0.002497269969
 26      -0.001112079165
 27      -0.000000000000
 28       0.000000000000
 Sym=     1a
 Ene= 1.06145263895231E+00
 Spin= Alpha
 Occup= 0.005994
  1       0.189875599018
  2       0.402302222546
  3       0.224198399391
  4       0.000000000000
  5      -0.000000000000
  6       0.378811031669
  7      -0.000000000000
  8      -0.000000000000
  9      -0.258870959597
 10       0.348364919305
 11       0.000000000000
 12      -0.000000000000
 13      -0.000000000000
 14       0.000000000000
 15       0.069599649314
 16       0.148087256260
 17      -0.584507568787
 18       0.000000000000
 19      -0.000000000000
 20      -0.123867195470
 21      -0.000000000000
 22       0.000000000000
 23       0.823377038850
 24       0.579136360896
 25      -0.000000000000
 26       0.000000000000
 27       0.000000000000
 28      -0.000000000000
 Sym=     1a
 Ene= 1.22461860680718E+00
 Spin= Alpha
 Occup= 0.005821
  1      -0.000000000000
  2      -0.000000000000
  3      -0.000000000000
  4       0.122000331145
  5      -0.238016151920
  6      -0.000000000000
  7      -0.090656854858
  8       0.176866698115
  9       0.000000000000
 10      -0.000000000000
 11       0.238874703121
 12      -0.466031830362
 13       0.000000000000
 14       0.000000000000
 15       0.000000000000
 16       0.000000000000
 17       0.000000000000
 18       0.077195867941
 19      -0.150605029176
 20       0.000000000000
 21      -0.241919217266
 22       0.471971515396
 23      -0.000000000000
 24      -0.000000000000
 25      -0.266057413942
 26       0.519063852223
 27       0.000000000000
 28       0.000000000000
 Sym=     1a
 Ene= 1.22461860680719E+00
 Spin= Alpha
 Occup= 0.005821
  1      -0.000000000000
  2      -0.000000000000
  3      -0.000000000000
  4       0.238016151920
  5       0.122000331145
  6      -0.000000000000
  7      -0.176866698115
  8      -0.090656854858
  9       0.000000000000
 10      -0.000000000000
 11       0.466031830362
 12       0.238874703121
 13      -0.000000000000
 14       0.000000000000
 15      -0.000000000000
 16      -0.000000000000
 17       0.000000000000
 18       0.150605029176
 19       0.077195867941
 20       0.000000000000
 21      -0.471971515396
 22      -0.241919217266
 23      -0.000000000000
 24      -0.000000000000
 25      -0.519063852223
 26      -0.266057413942
 27      -0.000000000000
 28       0.000000000000
 Sym=     1a
 Ene= 1.34421514511338E+00
 Spin= Alpha
 Occup= 0.004519
  1       0.000000000000
  2       0.000000000000
  3       0.000000000000
  4       0.000000000000
  5      -0.000000000000
  6       0.000000000000
  7      -0.000000000000
  8      -0.000000000000
  9       0.000000000000
 10       0.000000000000
 11      -0.000000000000
 12      -0.000000000000
 13      -0.553393252686
 14      -0.020818712202
 15       0.000000000000
 16       0.000000000000
 17      -0.000000000000
 18      -0.000000000000
 19      -0.000000000000
 20       0.000000000000
 21       0.000000000000
 22       0.000000000000
 23       0.000000000000
 24       0.000000000000
 25       0.000000000000
 26       0.000000000000
 27      -0.757960272352
 28      -0.028514544935
 Sym=     1a
 Ene= 1.34421514511339E+00
 Spin= Alpha
 Occup= 0.004519
  1       0.000000000000
  2       0.000000000000
  3      -0.000000000000
  4      -0.000000000000
  5       0.000000000000
  6       0.000000000000
  7       0.000000000000
  8       0.000000000000
  9       0.000000000000
 10       0.000000000000
 11       0.000000000000
 12       0.000000000000
 13      -0.020818712202
 14       0.553393252686
 15      -0.000000000000
 16      -0.000000000000
 17       0.000000000000
 18      -0.000000000000
 19       0.000000000000
 20       0.000000000000
 21       0.000000000000
 22      -0.000000000000
 23       0.000000000000
 24      -0.000000000000
 25       0.000000000000
 26      -0.000000000000
 27      -0.028514544935
 28       0.757960272352
 Sym=     1a
 Ene= 1.55740117132609E+00
 Spin= Alpha
 Occup= 0.002001
  1       0.006809589628
  2       0.116829947672
  3      -0.043774008638
  4      -0.000000000000
  5       0.000000000000
  6       0.470992042298
  7       0.000000000000
  8       0.000000000000
  9      -0.125959351175
 10       1.189356255688
 11      -0.000000000000
 12       0.000000000000
 13      -0.000000000000
 14       0.000000000000
 15      -0.491012582375
 16      -1.041088507492
 17       0.430529880465
 18       0.000000000000
 19       0.000000000000
 20       0.671445467550
 21      -0.000000000000
 22      -0.000000000000
 23      -0.341395234843
 24      -0.421129458948
 25      -0.000000000000
 26       0.000000000000
 27       0.000000000000
 28      -0.000000000000
 Sym=     1a
 Ene= 1.55740117132609E+00
 Spin= Alpha
 Occup= 0.001755
  1       0.000000000000
  2       0.000000000000
  3      -0.000000000000
  4      -0.000000000000
  5      -0.000000000000
  6       0.000000000000
  7       0.000000000000
  8      -0.000000000000
  9      -0.000000000000
 10       0.000000000000
 11      -0.000000000000
 12      -0.000000000000
 13       0.788682015778
 14      -0.302376693139
 15      -0.000000000000
 16      -0.000000000000
 17       0.000000000000
 18       0.000000000000
 19      -0.000000000000
 20       0.000000000000
 21       0.000000000000
 22       0.000000000000
 23      -0.000000000000
 24      -0.000000000000
 25      -0.000000000000
 26      -0.000000000000
 27      -0.622741688563
 28       0.238756011549
 Sym=     1a
 Ene= 1.93895567428138E+00
 Spin= Alpha
 Occup= 0.001755
  1      -0.000000000000
  2      -0.000000000000
  3      -0.000000000000
  4       0.000000000000
  5      -0.000000000000
  6      -0.000000000000
  7       0.000000000000
  8       0.000000000000
  9      -0.000000000000
 10      -0.000000000000
 11       0.000000000000
 12      -0.000000000000
 13       0.302376693139
 14       0.788682015778
 15       0.000000000000
 16       0.000000000000
 17       0.000000000000
 18       0.000000000000
 19       0.000000000000
 20      -0.000000000000
 21      -0.000000000000
 22      -0.000000000000
 23      -0.000000000000
 24       0.000000000000
 25       0.000000000000
 26      -0.000000000000
 27      -0.238756011549
 28      -0.622741688563
 Sym=     1a
 Ene= 2.34061288162614E+00
 Spin= Alpha
 Occup= 0.001430
  1      -0.000000000000
  2      -0.000000000000
  3       0.000000000000
  4       0.546445112865
  5      -0.485203329428
  6       0.000000000000
  7      -0.395894043726
  8       0.351524981365
  9       0.000000000000
 10       0.000000000000
 11       0.516436666339
 12      -0.458558021744
 13       0.000000000000
 14      -0.000000000000
 15      -0.000000000000
 16      -0.000000000000
 17      -0.000000000000
 18      -0.060914289624
 19       0.054087437950
 20       0.000000000000
 21      -0.168335636956
 22       0.149469744700
 23       0.000000000000
 24      -0.000000000000
 25       0.642856729313
 26      -0.570809799676
 27      -0.000000000000
 28       0.000000000000
 Sym=     1a
 Ene= 2.93693523052879E+00
 Spin= Alpha
 Occup= 0.001430
  1       0.000000000000
  2       0.000000000000
  3       0.000000000000
  4      -0.485203329428
  5      -0.546445112865
  6       0.000000000000
  7       0.351524981365
  8       0.395894043726
  9      -0.000000000000
 10       0.000000000000
 11      -0.458558021744
 12      -0.516436666339
 13      -0.000000000000
 14       0.000000000000
 15       0.000000000000
 16       0.000000000000
 17      -0.000000000000
 18       0.054087437950
 19       0.060914289624
 20       0.000000000000
 21       0.149469744700
 22       0.168335636956
 23       0.000000000000
 24      -0.000000000000
 25      -0.570809799676
 26      -0.642856729313
 27       0.000000000000
 28      -0.000000000000
 Sym=     1a
 Ene= 2.93693523052880E+00
 Spin= Alpha
 Occup= 0.000860
  1      -0.687102992416
  2      -1.399435296235
  3       0.126770216200
  4      -0.000000000000
  5      -0.000000000000
  6      -1.018108785617
  7      -0.000000000000
  8       0.000000000000
  9       0.470871902625
 10       0.126345672303
 11      -0.000000000000
 12      -0.000000000000
 13       0.000000000000
 14      -0.000000000000
 15      -0.231910942910
 16      -0.422435204570
 17       0.945568708110
 18      -0.000000000000
 19      -0.000000000000
 20       0.123242384423
 21       0.000000000000
 22       0.000000000000
 23      -1.327312700277
 24       0.933906252693
 25      -0.000000000000
 26      -0.000000000000
 27      -0.000000000000
 28       0.000000000000
 Sym=     1a
 Ene= 3.42516135305538E+00
 Spin= Alpha
 Occup= 0.000514
  1       0.000000000000
  2       0.000000000000
  3       0.000000000000
  4      -0.260577156739
  5       0.208852124691
  6       0.000000000000
  7       1.010953650115
  8      -0.810277540953
  9       0.000000000000
 10       0.000000000000
 11       0.587513773125
 12      -0.470891237505
 13      -0.000000000000
 14      -0.000000000000
 15       0.000000000000
 16       0.000000000000
 17      -0.000000000000
 18       0.213582437750
 19      -0.171185941543
 20       0.000000000000
 21      -0.969095333749
 22       0.776728175312
 23       0.000000000000
 24      -0.000000000000
 25       0.358346981790
 26      -0.287214464461
 27       0.000000000000
 28      -0.000000000000
 Sym=     1a
 Ene= 3.42516135305539E+00
 Spin= Alpha
 Occup= 0.000514
  1       0.000000000000
  2       0.000000000000
  3       0.000000000000
  4       0.208852124691
  5       0.260577156739
  6       0.000000000000
  7      -0.810277540953
  8      -1.010953650115
  9       0.000000000000
 10       0.000000000000
 11      -0.470891237505
 12      -0.587513773125
 13      -0.000000000000
 14       0.000000000000
 15       0.000000000000
 16       0.000000000000
 17      -0.000000000000
 18      -0.171185941543
 19      -0.213582437750
 20       0.000000000000
 21       0.776728175312
 22       0.969095333749
 23       0.000000000000
 24      -0.000000000000
 25      -0.287214464461
 26      -0.358346981790
 27       0.000000000000
 28      -0.000000000000
 Sym=     1a
 Ene= 3.87015665590914E+00
 Spin= Alpha
 Occup= 0.000184
  1       0.257090210326
  2       0.519706672092
  3       2.844696046131
  4       0.000000000000
  5      -0.000000000000
  6       0.702890167365
  7      -0.000000000000
  8       0.000000000000
  9       2.278016200579
 10       0.830709872702
 11      -0.000000000000
 12      -0.000000000000
 13      -0.000000000000
 14       0.000000000000
 15       0.585850952458
 16       1.126260091301
 17      -4.766476829884
 18      -0.000000000000
 19      -0.000000000000
 20       0.209710719889
 21       0.000000000000
 22       0.000000000000
 23       1.607127638177
 24      -0.386257638448
 25      -0.000000000000
 26      -0.000000000000
 27       0.000000000000
 28      -0.000000000000
