[Molden Format]
[Title]
 Molden file created by orca_2mkl for BaseName=CCSD-lin

[Atoms] AU
C    1   6          0.0000000000         0.0000000000         0.0000000000
O    2   8          0.0000000000         0.0000000000         2.1342566957
[GTO]
  1 0
s   8 1.0
     6665.0000000000         0.3635842998
     1000.0000000000         0.6749857928
      228.0000000000         1.1316199410
       64.7100000000         1.6530092121
       21.0600000000         1.9238206437
        7.4950000000         1.4472783162
        2.7970000000         0.4391631292
        0.5215000000         0.0066458037
s   8 1.0
     6665.0000000000        -0.1541797483
     1000.0000000000        -0.2937853735
      228.0000000000        -0.4808958038
       64.7100000000        -0.7614343161
       21.0600000000        -0.9001038923
        7.4950000000        -0.9726113518
        2.7970000000        -0.3940419460
        0.5215000000         0.4783944249
s   1 1.0
        0.1596000000         0.1799636353
p   3 1.0
        9.4390000000         1.3437371095
        2.0020000000         1.0631680879
        0.5456000000         0.5082318338
p   1 1.0
        0.1517000000         0.1349497436
d   1 1.0
        0.5500000000         1.0013935509

  2 0
s   8 1.0
    11720.0000000000         0.5697017158
     1759.0000000000         1.0583521000
      400.8000000000         1.7762810558
      113.7000000000         2.5994118899
       37.0300000000         3.0268459958
       13.2700000000         2.2223943344
        5.0250000000         0.6477954310
        1.0130000000         0.0111186960
s   8 1.0
    11720.0000000000        -0.2524342625
     1759.0000000000        -0.4804910908
      400.8000000000        -0.7862996613
      113.7000000000        -1.2541699039
       37.0300000000        -1.4912179216
       13.2700000000        -1.6108317779
        5.0250000000        -0.5497983753
        1.0130000000         0.7882822080
s   1 1.0
        0.3023000000         0.2905619240
p   3 1.0
       17.7000000000         3.2436193456
        3.8540000000         2.5672796523
        1.0460000000         1.1176693232
p   1 1.0
        0.2753000000         0.2842482844
d   1 1.0
        1.1850000000         3.8368709885

[5D]
[7F]
[9G]
[MO]
 Sym=     1a
 Ene= -2.06693601767737E+01
 Spin= Alpha
 Occup= 2.000000
  1       1.001305499334
  2       0.002097131507
  3      -0.000616063080
  4      -0.000000000000
  5       0.000000000000
  6       0.003833470166
  7      -0.000000000000
  8       0.000000000000
  9       0.000950333271
 10       0.001911917772
 11      -0.000000000000
 12       0.000000000000
 13      -0.000000000000
 14      -0.000000000000
 15      -0.000375331664
 16       0.000662379058
 17      -0.003969834805
 18      -0.000000000000
 19       0.000000000000
 20      -0.000317302093
 21       0.000000000000
 22      -0.000000000000
 23       0.002523813009
 24       0.000055644751
 25       0.000000000000
 26       0.000000000000
 27       0.000000000000
 28       0.000000000000
 Sym=     1a
 Ene= -1.13671122414562E+01
 Spin= Alpha
 Occup= 2.000000
  1      -0.000088982977
  2       0.000032219726
  3      -0.001866749364
  4       0.000000000000
  5      -0.000000000000
  6       0.000278420292
  7      -0.000000000000
  8       0.000000000000
  9      -0.001173029121
 10       0.000573774855
 11      -0.000000000000
 12      -0.000000000000
 13       0.000000000000
 14       0.000000000000
 15      -1.001170878841
 16      -0.001634011247
 17       0.004921620773
 18       0.000000000000
 19       0.000000000000
 20       0.001764414691
 21       0.000000000000
 22      -0.000000000000
 23      -0.001269178199
 24      -0.000398663203
 25      -0.000000000000
 26      -0.000000000000
 27      -0.000000000000
 28      -0.000000000000
 Sym=     1a
 Ene= -1.52210292706379E+00
 Spin= Alpha
 Occup= 1.984813
  1      -0.018123269973
  2       0.166637757659
  3       0.116756373094
  4       0.000000000000
  5      -0.000000000000
  6       0.121943396907
  7      -0.000000000000
  8      -0.000000000000
  9       0.010248443504
 10       0.033251410574
 11      -0.000000000000
 12      -0.000000000000
 13       0.000000000000
 14       0.000000000000
 15      -0.005284071489
 16       0.465282653649
 17       0.412404483264
 18       0.000000000000
 19      -0.000000000000
 20      -0.008861502175
 21       0.000000000000
 22      -0.000000000000
 23       0.061475926867
 24       0.010542016292
 25       0.000000000000
 26      -0.000000000000
 27      -0.000000000000
 28      -0.000000000000
 Sym=     1a
 Ene= -8.01996422566297E-01
 Spin= Alpha
 Occup= 1.970761
  1       0.006823549189
  2       0.249937965176
  3      -0.028290986897
  4      -0.000000000000
  5       0.000000000000
  6       0.301883750748
  7      -0.000000000000
  8      -0.000000000000
  9       0.004372588328
 10       0.030933902361
 11      -0.000000000000
 12      -0.000000000000
 13      -0.000000000000
 14      -0.000000000000
 15      -0.004441660649
 16      -0.096260250126
 17      -0.249676973861
 18      -0.000000000000
 19       0.000000000000
 20      -0.575913258502
 21       0.000000000000
 22       0.000000000000
 23      -0.292555790217
 24       0.029484333966
 25      -0.000000000000
 26       0.000000000000
 27      -0.000000000000
 28      -0.000000000000
 Sym=     1a
 Ene= -6.33897071981866E-01
 Spin= Alpha
 Occup= 1.945900
  1       0.003863157281
  2      -0.363403218342
  3      -0.609647232464
  4       0.000000000000
  5      -0.000000000000
  6       0.384817997206
  7       0.000000000000
  8      -0.000000000000
  9       0.156951684475
 10       0.031427018846
 11       0.000000000000
 12      -0.000000000000
 13      -0.000000000000
 14       0.000000000000
 15       0.003287428947
 16       0.129083509083
 17       0.151168433754
 18       0.000000000000
 19      -0.000000000000
 20      -0.102946483518
 21       0.000000000000
 22      -0.000000000000
 23      -0.068778750352
 24       0.006125961621
 25      -0.000000000000
 26       0.000000000000
 27      -0.000000000000
 28      -0.000000000000
 Sym=     1a
 Ene= -6.33897071981856E-01
 Spin= Alpha
 Occup= 1.944337
  1      -0.000000000000
  2      -0.000000000000
  3      -0.000000000000
  4       0.101664510785
  5       0.310162874893
  6       0.000000000000
  7       0.045384989720
  8       0.138462662928
  9       0.000000000000
 10       0.000000000000
 11       0.018218602528
 12       0.055582170150
 13      -0.000000000000
 14      -0.000000000000
 15      -0.000000000000
 16       0.000000000000
 17       0.000000000000
 18       0.171113801805
 19       0.522042040944
 20      -0.000000000000
 21       0.101409628798
 22       0.309385268929
 23      -0.000000000000
 24       0.000000000000
 25      -0.008409883007
 26      -0.025657266935
 27      -0.000000000000
 28       0.000000000000
 Sym=     1a
 Ene= -5.48958020183011E-01
 Spin= Alpha
 Occup= 1.944337
  1      -0.000000000000
  2       0.000000000000
  3       0.000000000000
  4       0.310162874893
  5      -0.101664510785
  6      -0.000000000000
  7       0.138462662928
  8      -0.045384989720
  9      -0.000000000000
 10      -0.000000000000
 11       0.055582170150
 12      -0.018218602528
 13       0.000000000000
 14      -0.000000000000
 15      -0.000000000000
 16      -0.000000000000
 17      -0.000000000000
 18       0.522042040944
 19      -0.171113801805
 20       0.000000000000
 21       0.309385268929
 22      -0.101409628798
 23      -0.000000000000
 24       0.000000000000
 25      -0.025657266935
 26       0.008409883007
 27       0.000000000000
 28      -0.000000000000
 Sym=     1a
 Ene= 1.54142771369951E-01
 Spin= Alpha
 Occup= 0.057807
  1      -0.000000000000
  2      -0.000000000000
  3       0.000000000000
  4      -0.256402289739
  5       0.629249308581
  6       0.000000000000
  7      -0.100682282153
  8       0.247089277150
  9       0.000000000000
 10      -0.000000000000
 11       0.010958165004
 12      -0.026892964799
 13      -0.000000000000
 14      -0.000000000000
 15       0.000000000000
 16       0.000000000000
 17      -0.000000000000
 18       0.240603371979
 19      -0.590476417406
 20       0.000000000000
 21       0.019514169358
 22      -0.047890670510
 23       0.000000000000
 24       0.000000000000
 25       0.015382475946
 26      -0.037750881098
 27      -0.000000000000
 28      -0.000000000000
 Sym=     1a
 Ene= 1.54142771369952E-01
 Spin= Alpha
 Occup= 0.057807
  1       0.000000000000
  2       0.000000000000
  3       0.000000000000
  4       0.629249308581
  5       0.256402289739
  6       0.000000000000
  7       0.247089277150
  8       0.100682282153
  9       0.000000000000
 10       0.000000000000
 11      -0.026892964799
 12      -0.010958165004
 13      -0.000000000000
 14      -0.000000000000
 15       0.000000000000
 16       0.000000000000
 17      -0.000000000000
 18      -0.590476417406
 19      -0.240603371979
 20      -0.000000000000
 21      -0.047890670510
 22      -0.019514169358
 23       0.000000000000
 24      -0.000000000000
 25      -0.037750881098
 26      -0.015382475946
 27       0.000000000000
 28      -0.000000000000
 Sym=     1a
 Ene= 3.82491974211721E-01
 Spin= Alpha
 Occup= 0.021645
  1      -0.083949014031
  2      -0.376235184597
  3      -0.208597607113
  4       0.000000000000
  5       0.000000000000
  6      -0.880801353997
  7      -0.000000000000
  8       0.000000000000
  9      -0.090176834245
 10       0.069941459841
 11       0.000000000000
 12       0.000000000000
 13       0.000000000000
 14      -0.000000000000
 15       0.126403844852
 16       0.445491828029
 17       0.259851908034
 18      -0.000000000000
 19       0.000000000000
 20      -0.808970486160
 21       0.000000000000
 22      -0.000000000000
 23       0.054397710830
 24      -0.065686116249
 25       0.000000000000
 26       0.000000000000
 27      -0.000000000000
 28       0.000000000000
 Sym=     1a
 Ene= 6.72170266592726E-01
 Spin= Alpha
 Occup= 0.011626
  1       0.324321301822
  2       0.838268389088
  3      -1.028587225215
  4       0.000000000000
  5       0.000000000000
  6      -0.235261867063
  7      -0.000000000000
  8       0.000000000000
  9       0.070520397484
 10       0.081778919258
 11      -0.000000000000
 12       0.000000000000
 13       0.000000000000
 14       0.000000000000
 15       0.337099483870
 16       0.875055845273
 17      -0.609707837014
 18       0.000000000000
 19       0.000000000000
 20       0.492854453142
 21      -0.000000000000
 22      -0.000000000000
 23      -0.578229014608
 24       0.019996980216
 25       0.000000000000
 26       0.000000000000
 27       0.000000000000
 28      -0.000000000000
 Sym=     1a
 Ene= 6.72170266592731E-01
 Spin= Alpha
 Occup= 0.008327
  1      -0.413496746719
  2      -1.056019212588
  3       1.148577083377
  4      -0.000000000000
  5       0.000000000000
  6       0.437585612869
  7       0.000000000000
  8      -0.000000000000
  9      -0.447544137392
 10      -0.007000752510
 11      -0.000000000000
 12       0.000000000000
 13      -0.000000000000
 14       0.000000000000
 15       0.344860686812
 16       0.854365877674
 17      -0.924411825583
 18      -0.000000000000
 19       0.000000000000
 20       0.202081475927
 21       0.000000000000
 22      -0.000000000000
 23      -0.214737494540
 24      -0.039954171980
 25       0.000000000000
 26      -0.000000000000
 27      -0.000000000000
 28       0.000000000000
 Sym=     1a
 Ene= 7.26388397069629E-01
 Spin= Alpha
 Occup= 0.006966
  1       0.000000000000
  2       0.000000000000
  3      -0.000000000000
  4      -0.421443011473
  5       0.031452423068
  6       0.000000000000
  7       0.062916157160
  8      -0.004695452384
  9      -0.000000000000
 10       0.000000000000
 11       0.554347219239
 12      -0.041371105443
 13       0.000000000000
 14       0.000000000000
 15      -0.000000000000
 16      -0.000000000000
 17      -0.000000000000
 18      -0.747650708153
 19       0.055797404962
 20      -0.000000000000
 21       0.733576279653
 22      -0.054747025985
 23       0.000000000000
 24      -0.000000000000
 25      -0.010024795237
 26       0.000748153588
 27       0.000000000000
 28       0.000000000000
 Sym=     1a
 Ene= 1.01685116206195E+00
 Spin= Alpha
 Occup= 0.006966
  1       0.000000000000
  2       0.000000000000
  3       0.000000000000
  4      -0.031452423068
  5      -0.421443011473
  6       0.000000000000
  7       0.004695452384
  8       0.062916157160
  9       0.000000000000
 10       0.000000000000
 11       0.041371105443
 12       0.554347219239
 13       0.000000000000
 14      -0.000000000000
 15       0.000000000000
 16       0.000000000000
 17      -0.000000000000
 18      -0.055797404962
 19      -0.747650708153
 20      -0.000000000000
 21       0.054747025984
 22       0.733576279653
 23       0.000000000000
 24       0.000000000000
 25      -0.000748153588
 26      -0.010024795237
 27       0.000000000000
 28      -0.000000000000
 Sym=     1a
 Ene= 1.06145263895231E+00
 Spin= Alpha
 Occup= 0.006153
  1       0.197819899201
  2       0.424049503963
  3       0.201367802203
  4      -0.000000000000
  5       0.000000000000
  6       0.376082911491
  7       0.000000000000
  8      -0.000000000000
  9      -0.252336998091
 10       0.360491202698
 11      -0.000000000000
 12      -0.000000000000
 13      -0.000000000000
 14       0.000000000000
 15       0.059140343367
 16       0.124180200087
 17      -0.564693329558
 18       0.000000000000
 19      -0.000000000000
 20      -0.118834516219
 21       0.000000000000
 22       0.000000000000
 23       0.821942727711
 24       0.576032436046
 25      -0.000000000000
 26       0.000000000000
 27       0.000000000000
 28      -0.000000000000
 Sym=     1a
 Ene= 1.22461860680718E+00
 Spin= Alpha
 Occup= 0.006034
  1       0.000000000000
  2       0.000000000000
  3      -0.000000000000
  4       0.026749739761
  5       0.278201017432
  6       0.000000000000
  7      -0.020132645831
  8      -0.209382319374
  9      -0.000000000000
 10       0.000000000000
 11       0.050216944226
 12       0.522263210808
 13       0.000000000000
 14      -0.000000000000
 15      -0.000000000000
 16      -0.000000000000
 17       0.000000000000
 18       0.016858419655
 19       0.175329911324
 20       0.000000000000
 21      -0.051382451197
 22      -0.534384645567
 23      -0.000000000000
 24       0.000000000000
 25      -0.054913757133
 26      -0.571110718903
 27       0.000000000000
 28      -0.000000000000
 Sym=     1a
 Ene= 1.22461860680719E+00
 Spin= Alpha
 Occup= 0.006034
  1       0.000000000000
  2       0.000000000000
  3      -0.000000000000
  4      -0.278201017432
  5       0.026749739761
  6       0.000000000000
  7       0.209382319374
  8      -0.020132645831
  9      -0.000000000000
 10       0.000000000000
 11      -0.522263210807
 12       0.050216944226
 13       0.000000000000
 14       0.000000000000
 15      -0.000000000000
 16      -0.000000000000
 17       0.000000000000
 18      -0.175329911324
 19       0.016858419655
 20       0.000000000000
 21       0.534384645567
 22      -0.051382451197
 23       0.000000000000
 24      -0.000000000000
 25       0.571110718903
 26      -0.054913757133
 27       0.000000000000
 28      -0.000000000000
 Sym=     1a
 Ene= 1.34421514511338E+00
 Spin= Alpha
 Occup= 0.004740
  1       0.000000000000
  2       0.000000000000
  3      -0.000000000000
  4       0.000000000000
  5       0.000000000000
  6       0.000000000000
  7       0.000000000000
  8      -0.000000000000
  9      -0.000000000000
 10       0.000000000000
 11      -0.000000000000
 12       0.000000000000
 13       0.107324790343
 14       0.564636949929
 15      -0.000000000000
 16      -0.000000000000
 17       0.000000000000
 18       0.000000000000
 19       0.000000000000
 20       0.000000000000
 21      -0.000000000000
 22      -0.000000000000
 23      -0.000000000000
 24       0.000000000000
 25      -0.000000000000
 26      -0.000000000000
 27       0.138476571393
 28       0.728526826449
 Sym=     1a
 Ene= 1.34421514511339E+00
 Spin= Alpha
 Occup= 0.004740
  1       0.000000000000
  2       0.000000000000
  3      -0.000000000000
  4       0.000000000000
  5       0.000000000000
  6       0.000000000000
  7       0.000000000000
  8      -0.000000000000
  9      -0.000000000000
 10      -0.000000000000
 11       0.000000000000
 12       0.000000000000
 13      -0.564636949929
 14       0.107324790343
 15      -0.000000000000
 16      -0.000000000000
 17       0.000000000000
 18      -0.000000000000
 19      -0.000000000000
 20      -0.000000000000
 21       0.000000000000
 22      -0.000000000000
 23       0.000000000000
 24      -0.000000000000
 25       0.000000000000
 26       0.000000000000
 27      -0.728526826449
 28       0.138476571393
 Sym=     1a
 Ene= 1.55740117132609E+00
 Spin= Alpha
 Occup= 0.002058
  1       0.005864806066
  2       0.118389406099
  3      -0.038125768023
  4      -0.000000000000
  5      -0.000000000000
  6       0.468146755897
  7       0.000000000000
  8      -0.000000000000
  9      -0.103596274622
 10       1.190891034273
 11      -0.000000000000
 12      -0.000000000000
 13      -0.000000000000
 14       0.000000000000
 15      -0.493309826961
 16      -1.048082216176
 17       0.421053618939
 18       0.000000000000
 19      -0.000000000000
 20       0.679531130444
 21       0.000000000000
 22       0.000000000000
 23      -0.349540293992
 24      -0.421747841763
 25      -0.000000000000
 26      -0.000000000000
 27       0.000000000000
 28      -0.000000000000
 Sym=     1a
 Ene= 1.55740117132609E+00
 Spin= Alpha
 Occup= 0.001868
  1      -0.000000000000
  2       0.000000000000
  3       0.000000000000
  4       0.000000000000
  5       0.000000000000
  6      -0.000000000000
  7      -0.000000000000
  8       0.000000000000
  9       0.000000000000
 10      -0.000000000000
 11       0.000000000000
 12       0.000000000000
 13       0.135697389656
 14       0.819378557234
 15       0.000000000000
 16       0.000000000000
 17      -0.000000000000
 18       0.000000000000
 19       0.000000000000
 20      -0.000000000000
 21      -0.000000000000
 22      -0.000000000000
 23      -0.000000000000
 24      -0.000000000000
 25       0.000000000000
 26       0.000000000000
 27      -0.112034925768
 28      -0.676498023049
 Sym=     1a
 Ene= 1.93895567428138E+00
 Spin= Alpha
 Occup= 0.001868
  1      -0.000000000000
  2      -0.000000000000
  3       0.000000000000
  4       0.000000000000
  5      -0.000000000000
  6      -0.000000000000
  7       0.000000000000
  8       0.000000000000
  9       0.000000000000
 10      -0.000000000000
 11       0.000000000000
 12      -0.000000000000
 13      -0.819378557234
 14       0.135697389656
 15       0.000000000000
 16       0.000000000000
 17       0.000000000000
 18       0.000000000000
 19       0.000000000000
 20      -0.000000000000
 21      -0.000000000000
 22       0.000000000000
 23      -0.000000000000
 24       0.000000000000
 25       0.000000000000
 26      -0.000000000000
 27       0.676498023049
 28      -0.112034925768
 Sym=     1a
 Ene= 2.34061288162614E+00
 Spin= Alpha
 Occup= 0.001512
  1      -0.000000000000
  2      -0.000000000000
  3      -0.000000000000
  4       0.670550855971
  5      -0.276743450764
  6      -0.000000000000
  7      -0.499451578612
  8       0.206128964155
  9      -0.000000000000
 10       0.000000000000
 11       0.629200112462
 12      -0.259677560313
 13       0.000000000000
 14      -0.000000000000
 15      -0.000000000000
 16      -0.000000000000
 17       0.000000000000
 18      -0.083605197265
 19       0.034504751708
 20       0.000000000000
 21      -0.185529852817
 22       0.076570138165
 23      -0.000000000000
 24       0.000000000000
 25       0.797098376597
 26      -0.328970954811
 27      -0.000000000000
 28       0.000000000000
 Sym=     1a
 Ene= 2.93693523052879E+00
 Spin= Alpha
 Occup= 0.001512
  1       0.000000000000
  2       0.000000000000
  3      -0.000000000000
  4      -0.276743450764
  5      -0.670550855971
  6      -0.000000000000
  7       0.206128964155
  8       0.499451578612
  9      -0.000000000000
 10      -0.000000000000
 11      -0.259677560313
 12      -0.629200112462
 13       0.000000000000
 14       0.000000000000
 15       0.000000000000
 16       0.000000000000
 17      -0.000000000000
 18       0.034504751708
 19       0.083605197265
 20      -0.000000000000
 21       0.076570138165
 22       0.185529852817
 23       0.000000000000
 24       0.000000000000
 25      -0.328970954811
 26      -0.797098376597
 27      -0.000000000000
 28      -0.000000000000
 Sym=     1a
 Ene= 2.93693523052880E+00
 Spin= Alpha
 Occup= 0.000895
  1      -0.685868354358
  2      -1.396330093369
  3       0.135759289271
  4      -0.000000000000
  5       0.000000000000
  6      -1.013740051741
  7       0.000000000000
  8      -0.000000000000
  9       0.478591895644
 10       0.120529907120
 11      -0.000000000000
 12      -0.000000000000
 13      -0.000000000000
 14       0.000000000000
 15      -0.226580797871
 16      -0.412145914352
 17       0.924813951069
 18      -0.000000000000
 19      -0.000000000000
 20       0.124092573932
 21       0.000000000000
 22       0.000000000000
 23      -1.322417000784
 24       0.935907219303
 25      -0.000000000000
 26      -0.000000000000
 27      -0.000000000000
 28       0.000000000000
 Sym=     1a
 Ene= 3.42516135305538E+00
 Spin= Alpha
 Occup= 0.000553
  1       0.000000000000
  2       0.000000000000
  3      -0.000000000000
  4       0.001077615674
  5       0.323752721132
  6      -0.000000000000
  7      -0.004286926779
  8      -1.287939888172
  9      -0.000000000000
 10      -0.000000000000
 11      -0.002512664501
 12      -0.754890625025
 13       0.000000000000
 14       0.000000000000
 15      -0.000000000000
 16       0.000000000000
 17       0.000000000000
 18      -0.000940142230
 19      -0.282450981912
 20      -0.000000000000
 21       0.004176584675
 22       1.254789334110
 23      -0.000000000000
 24       0.000000000000
 25      -0.001552707673
 26      -0.466486657984
 27      -0.000000000000
 28      -0.000000000000
 Sym=     1a
 Ene= 3.42516135305539E+00
 Spin= Alpha
 Occup= 0.000553
  1       0.000000000000
  2       0.000000000000
  3      -0.000000000000
  4      -0.323752721132
  5       0.001077615674
  6      -0.000000000000
  7       1.287939888172
  8      -0.004286926779
  9      -0.000000000000
 10      -0.000000000000
 11       0.754890625025
 12      -0.002512664501
 13       0.000000000000
 14      -0.000000000000
 15      -0.000000000000
 16      -0.000000000000
 17       0.000000000000
 18       0.282450981912
 19      -0.000940142230
 20      -0.000000000000
 21      -1.254789334110
 22       0.004176584675
 23      -0.000000000000
 24       0.000000000000
 25       0.466486657984
 26      -0.001552707673
 27      -0.000000000000
 28       0.000000000000
 Sym=     1a
 Ene= 3.87015665590914E+00
 Spin= Alpha
 Occup= 0.000190
  1       0.258442968976
  2       0.521721638169
  3       2.846664730168
  4      -0.000000000000
  5      -0.000000000000
  6       0.705397212643
  7       0.000000000000
  8      -0.000000000000
  9       2.276000389576
 10       0.823962225594
 11       0.000000000000
 12      -0.000000000000
 13      -0.000000000000
 14       0.000000000000
 15       0.590762625800
 16       1.136547471685
 17      -4.776401428657
 18       0.000000000000
 19      -0.000000000000
 20       0.207861133503
 21      -0.000000000000
 22       0.000000000000
 23       1.611079749410
 24      -0.386664934218
 25       0.000000000000
 26      -0.000000000000
 27      -0.000000000000
 28       0.000000000000
