[Molden Format]
[Title]
Generated by Multiwfn  Date: 2023-10-20 Time: 17:13:22
[Atoms] AU
C       1   6     0.0000000     0.0000000     0.0000000
O       2   8     0.0000000     0.0000000     2.1342567
[GTO]
     1     0
s   9 1.0
  6.66500000E+03  6.92000179E-04
  1.00000000E+03  5.32900138E-03
  2.28000000E+02  2.70770070E-02
  6.47100000E+01  1.01718026E-01
  2.10600000E+01  2.74740071E-01
  7.49500000E+00  4.48564116E-01
  2.79700000E+00  2.85074074E-01
  5.21500000E-01  1.52040039E-02
  1.59600000E-01 -3.19100083E-03
s   9 1.0
  6.66500000E+03 -1.46000064E-04
  1.00000000E+03 -1.15400051E-03
  2.28000000E+02 -5.72500252E-03
  6.47100000E+01 -2.33120103E-02
  2.10600000E+01 -6.39550281E-02
  7.49500000E+00 -1.49981066E-01
  2.79700000E+00 -1.27262056E-01
  5.21500000E-01  5.44529240E-01
  1.59600000E-01  5.80496255E-01
s   1 1.0
  1.59600000E-01  1.00000000E+00
p   4 1.0
  9.43900000E+00  3.81090213E-02
  2.00200000E+00  2.09480117E-01
  5.45600000E-01  5.08557284E-01
  1.51700000E-01  4.68842262E-01
p   1 1.0
  1.51700000E-01  1.00000000E+00
d   1 1.0
  5.50000000E-01  1.00000000E+00

     2     0
s   9 1.0
  1.17200000E+04  7.10000250E-04
  1.75900000E+03  5.47000193E-03
  4.00800000E+02  2.78370098E-02
  1.13700000E+02  1.04800037E-01
  3.70300000E+01  2.83062100E-01
  1.32700000E+01  4.48719158E-01
  5.02500000E+00  2.70952096E-01
  1.01300000E+00  1.54580054E-02
  3.02300000E-01 -2.58500091E-03
s   9 1.0
  1.17200000E+04 -1.60000015E-04
  1.75900000E+03 -1.26300012E-03
  4.00800000E+02 -6.26700060E-03
  1.13700000E+02 -2.57160025E-02
  3.70300000E+01 -7.09240068E-02
  1.32700000E+01 -1.65411016E-01
  5.02500000E+00 -1.16955011E-01
  1.01300000E+00  5.57368054E-01
  3.02300000E-01  5.72759055E-01
s   1 1.0
  3.02300000E-01  1.00000000E+00
p   4 1.0
  1.77000000E+01  4.30179924E-02
  3.85400000E+00  2.28912960E-01
  1.04600000E+00  5.08727910E-01
  2.75300000E-01  4.60530919E-01
p   1 1.0
  2.75300000E-01  1.00000000E+00
d   1 1.0
  1.18500000E+00  1.00000000E+00


[5D10F]
[MO]
Ene=      0.00000000
Spin= Alpha
Occup=  2.000000
     1     -0.0000889295
     2      0.0000647192
     3     -0.0019046022
     4      0.0000000000
     5      0.0000000000
     6      0.0004162836
     7      0.0000000000
     8      0.0000000000
     9     -0.0013682005
    10      0.0005737746
    11      0.0000000000
    12      0.0000000000
    13      0.0000000000
    14      0.0000000000
    15     -1.0006712800
    16     -0.0032112742
    17      0.0041741703
    18      0.0000000000
    19      0.0000000000
    20      0.0025708312
    21      0.0000000000
    22      0.0000000000
    23     -0.0024531253
    24     -0.0003986631
    25      0.0000000000
    26      0.0000000000
    27      0.0000000000
    28      0.0000000000
Ene=      0.00000000
Spin= Alpha
Occup=  2.000000
     1     -1.0007032500
     2     -0.0042125004
     3     -0.0001318415
     4      0.0000000000
     5      0.0000000000
     6     -0.0057316677
     7      0.0000000000
     8      0.0000000000
     9      0.0017369150
    10     -0.0019119178
    11      0.0000000000
    12      0.0000000000
    13      0.0000000000
    14      0.0000000000
    15      0.0003751444
    16     -0.0013017537
    17      0.0047163964
    18      0.0000000000
    19      0.0000000000
    20      0.0004623219
    21      0.0000000000
    22      0.0000000000
    23     -0.0027367273
    24     -0.0000556445
    25      0.0000000000
    26      0.0000000000
    27      0.0000000000
    28      0.0000000000
Ene=      0.00000000
Spin= Alpha
Occup=  1.984374
     1      0.0182124183
     2     -0.3290513450
     3      0.0776810771
     4     -0.0000000000
     5      0.0000000000
     6     -0.1797611020
     7      0.0000000000
     8     -0.0000000000
     9      0.0753620629
    10     -0.0332351710
    11     -0.0000000000
    12      0.0000000000
    13     -0.0000000000
    14      0.0000000000
    15      0.0056672109
    16     -0.9149633490
    17      0.1064895430
    18     -0.0000000000
    19      0.0000000000
    20      0.0071395678
    21      0.0000000000
    22     -0.0000000000
    23     -0.0656769187
    24     -0.0105613652
    25     -0.0000000000
    26      0.0000000000
    27     -0.0000000000
    28      0.0000000000
Ene=      0.00000000
Spin= Alpha
Occup=  1.968875
     1     -0.0059106181
     2     -0.5036782080
     3      0.3176597180
     4      0.0000000000
     5      0.0000000000
     6     -0.4489636370
     7     -0.0000000000
     8     -0.0000000000
     9      0.2056474640
    10     -0.0323950712
    11     -0.0000000000
    12      0.0000000000
    13     -0.0000000000
    14     -0.0000000000
    15      0.0045060599
    16      0.1826375690
    17      0.1428508390
    18      0.0000000000
    19      0.0000000000
    20      0.8375665160
    21      0.0000000000
    22     -0.0000000000
    23     -0.0916366877
    24     -0.0302623997
    25     -0.0000000000
    26      0.0000000000
    27     -0.0000000000
    28     -0.0000000000
Ene=      0.00000000
Spin= Alpha
Occup=  1.941468
     1     -0.0044748011
     2      0.7260227800
     3      0.1929970000
     4     -0.0000000000
     5     -0.0000000000
     6     -0.5737028460
     7     -0.0000000000
     8      0.0000000000
     9      0.1126134210
    10     -0.0322412581
    11     -0.0000000000
    12     -0.0000000000
    13     -0.0000000000
    14      0.0000000000
    15     -0.0026507811
    16     -0.2488046560
    17     -0.0104361018
    18      0.0000000000
    19     -0.0000000000
    20      0.1519757940
    21      0.0000000000
    22      0.0000000000
    23      0.0019007798
    24     -0.0064870376
    25     -0.0000000000
    26     -0.0000000000
    27      0.0000000000
    28      0.0000000000
Ene=      0.00000000
Spin= Alpha
Occup=  1.937096
     1     -0.0000000000
     2     -0.0000000000
     3      0.0000000000
     4      0.3880008690
     5      0.2770325090
     6     -0.0000000000
     7     -0.0674571291
     8     -0.0481643046
     9     -0.0000000000
    10      0.0000000000
    11      0.0475776901
    12      0.0339704367
    13      0.0000000000
    14      0.0000000000
    15      0.0000000000
    16      0.0000000000
    17     -0.0000000000
    18      0.6532613830
    19      0.4664282310
    20     -0.0000000000
    21     -0.0298269373
    22     -0.0212964618
    23     -0.0000000000
    24     -0.0000000000
    25     -0.0226010340
    26     -0.0161371265
    27      0.0000000000
    28      0.0000000000
Ene=      0.00000000
Spin= Alpha
Occup=  1.937096
     1     -0.0000000000
     2     -0.0000000000
     3      0.0000000000
     4      0.2770325090
     5     -0.3880008690
     6     -0.0000000000
     7     -0.0481643046
     8      0.0674571291
     9      0.0000000000
    10     -0.0000000000
    11      0.0339704367
    12     -0.0475776901
    13     -0.0000000000
    14      0.0000000000
    15     -0.0000000000
    16     -0.0000000000
    17      0.0000000000
    18      0.4664282310
    19     -0.6532613830
    20     -0.0000000000
    21     -0.0212964618
    22      0.0298269373
    23     -0.0000000000
    24      0.0000000000
    25     -0.0161371265
    26      0.0226010340
    27     -0.0000000000
    28     -0.0000000000
Ene=      0.00000000
Spin= Alpha
Occup=  0.065750
     1      0.0000000000
     2      0.0000000000
     3     -0.0000000000
     4     -0.7640929410
     5     -0.7047892110
     6     -0.0000000000
     7      0.1554497750
     8      0.1433847720
     9     -0.0000000000
    10     -0.0000000000
    11      0.0202955385
    12      0.0187204451
    13     -0.0000000000
    14      0.0000000000
    15     -0.0000000000
    16     -0.0000000000
    17      0.0000000000
    18      0.6520661490
    19      0.6014564960
    20     -0.0000000000
    21     -0.2367159900
    22     -0.2183431020
    23      0.0000000000
    24      0.0000000000
    25      0.0267427149
    26      0.0246670898
    27     -0.0000000000
    28     -0.0000000000
Ene=      0.00000000
Spin= Alpha
Occup=  0.065750
     1      0.0000000000
     2      0.0000000000
     3     -0.0000000000
     4      0.7047892110
     5     -0.7640929410
     6     -0.0000000000
     7     -0.1433847720
     8      0.1554497750
     9      0.0000000000
    10     -0.0000000000
    11     -0.0187204451
    12      0.0202955385
    13      0.0000000000
    14     -0.0000000000
    15     -0.0000000000
    16     -0.0000000000
    17      0.0000000000
    18     -0.6014564960
    19      0.6520661490
    20     -0.0000000000
    21      0.2183431020
    22     -0.2367159900
    23      0.0000000000
    24      0.0000000000
    25     -0.0246670898
    26      0.0267427149
    27      0.0000000000
    28      0.0000000000
Ene=      0.00000000
Spin= Alpha
Occup=  0.023146
     1      0.0891364081
     2      0.7736598080
     3     -0.2244815570
     4     -0.0000000000
     5      0.0000000000
     6      1.3272161400
     7     -0.0000000000
     8      0.0000000000
     9     -0.5238939840
    10     -0.0791145512
    11     -0.0000000000
    12      0.0000000000
    13      0.0000000000
    14      0.0000000000
    15     -0.1205241840
    16     -0.8557920130
    17      0.2045780400
    18      0.0000000000
    19     -0.0000000000
    20      1.1614103100
    21      0.0000000000
    22     -0.0000000000
    23     -0.5629505430
    24      0.0629508355
    25     -0.0000000000
    26      0.0000000000
    27     -0.0000000000
    28     -0.0000000000
Ene=      0.00000000
Spin= Alpha
Occup=  0.012176
     1      0.3307834040
     2      1.7207965100
     3     -2.0750474700
     4     -0.0000000000
     5      0.0000000000
     6     -0.3568537580
     7     -0.0000000000
     8      0.0000000000
     9      0.2142010140
    10      0.0717016264
    11     -0.0000000000
    12      0.0000000000
    13      0.0000000000
    14      0.0000000000
    15      0.3247403370
    16      1.6645819400
    17     -1.4977353500
    18     -0.0000000000
    19     -0.0000000000
    20      0.7195923400
    21      0.0000000000
    22     -0.0000000000
    23     -0.9196066370
    24      0.0205569926
    25     -0.0000000000
    26      0.0000000000
    27     -0.0000000000
    28      0.0000000000
Ene=      0.00000000
Spin= Alpha
Occup=  0.008596
     1     -0.4117704480
     2     -2.1083956500
     3      2.3507781100
     4      0.0000000000
     5     -0.0000000000
     6      0.6504209280
     7     -0.0000000000
     8      0.0000000000
     9     -0.7553154450
    10      0.0009569978
    11     -0.0000000000
    12      0.0000000000
    13     -0.0000000000
    14     -0.0000000000
    15      0.3433075920
    16      1.6778368300
    17     -1.8761269200
    18      0.0000000000
    19     -0.0000000000
    20      0.3148118830
    21     -0.0000000000
    22      0.0000000000
    23     -0.3785015640
    24     -0.0360503789
    25     -0.0000000000
    26      0.0000000000
    27      0.0000000000
    28     -0.0000000000
Ene=      0.00000000
Spin= Alpha
Occup=  0.007346
     1      0.0000000000
     2      0.0000000000
     3      0.0000000000
     4     -0.6937638680
     5      0.0143303985
     6      0.0000000000
     7      0.4144771720
     8     -0.0085605311
     9     -0.0000000000
    10      0.0000000000
    11      0.3946111770
    12     -0.0081524092
    13      0.0000000000
    14     -0.0000000000
    15      0.0000000000
    16      0.0000000000
    17     -0.0000000000
    18     -1.1573054100
    19      0.0239079600
    20      0.0000000000
    21      1.4004735100
    22     -0.0289312380
    23      0.0000000000
    24      0.0000000000
    25      0.0669904177
    26     -0.0013834089
    27      0.0000000000
    28     -0.0000000000
Ene=      0.00000000
Spin= Alpha
Occup=  0.007346
     1     -0.0000000000
     2     -0.0000000000
     3     -0.0000000000
     4     -0.0143303985
     5     -0.6937638680
     6     -0.0000000000
     7      0.0085605311
     8      0.4144771720
     9      0.0000000000
    10     -0.0000000000
    11      0.0081524092
    12      0.3946111770
    13     -0.0000000000
    14     -0.0000000000
    15     -0.0000000000
    16     -0.0000000000
    17      0.0000000000
    18     -0.0239079600
    19     -1.1573054100
    20     -0.0000000000
    21      0.0289312380
    22      1.4004735100
    23     -0.0000000000
    24     -0.0000000000
    25      0.0013834089
    26      0.0669904177
    27     -0.0000000000
    28     -0.0000000000
Ene=      0.00000000
Spin= Alpha
Occup=  0.006489
     1     -0.2177097340
     2     -0.9337201700
     3      0.3591702650
     4      0.0000000000
     5     -0.0000000000
     6     -0.6006605600
     7     -0.0000000000
     8      0.0000000000
     9      0.5584447950
    10     -0.3551945560
    11      0.0000000000
    12     -0.0000000000
    13      0.0000000000
    14      0.0000000000
    15     -0.0620363937
    16     -0.2531327980
    17      0.7128877700
    18     -0.0000000000
    19      0.0000000000
    20      0.1815851440
    21     -0.0000000000
    22      0.0000000000
    23     -0.9381124690
    24     -0.5481513290
    25     -0.0000000000
    26      0.0000000000
    27      0.0000000000
    28      0.0000000000
Ene=      0.00000000
Spin= Alpha
Occup=  0.006253
     1      0.0000000000
     2      0.0000000000
     3     -0.0000000000
     4     -0.2992481530
     5     -0.1081976560
     6      0.0000000000
     7      0.3528470320
     8      0.1275767470
     9     -0.0000000000
    10      0.0000000000
    11     -0.6015898280
    12     -0.2175118480
    13     -0.0000000000
    14     -0.0000000000
    15      0.0000000000
    16      0.0000000000
    17     -0.0000000000
    18     -0.0208372380
    19     -0.0075353347
    20     -0.0000000000
    21      0.3551546760
    22      0.1284122280
    23      0.0000000000
    24      0.0000000000
    25      0.5087548820
    26      0.1839468030
    27     -0.0000000000
    28      0.0000000000
Ene=      0.00000000
Spin= Alpha
Occup=  0.006253
     1      0.0000000000
     2      0.0000000000
     3     -0.0000000000
     4      0.1081976560
     5     -0.2992481530
     6      0.0000000000
     7     -0.1275767470
     8      0.3528470320
     9     -0.0000000000
    10      0.0000000000
    11      0.2175118480
    12     -0.6015898280
    13     -0.0000000000
    14     -0.0000000000
    15      0.0000000000
    16      0.0000000000
    17     -0.0000000000
    18      0.0075353347
    19     -0.0208372380
    20     -0.0000000000
    21     -0.1284122280
    22      0.3551546760
    23      0.0000000000
    24      0.0000000000
    25     -0.1839468030
    26      0.5087548820
    27     -0.0000000000
    28     -0.0000000000
Ene=      0.00000000
Spin= Alpha
Occup=  0.004869
     1     -0.0000000000
     2     -0.0000000000
     3      0.0000000000
     4     -0.0000000000
     5      0.0000000000
     6     -0.0000000000
     7      0.0000000000
     8     -0.0000000000
     9      0.0000000000
    10      0.0000000000
    11     -0.0000000000
    12      0.0000000000
    13     -0.6020939870
    14     -0.0127856914
    15     -0.0000000000
    16     -0.0000000000
    17      0.0000000000
    18     -0.0000000000
    19      0.0000000000
    20      0.0000000000
    21      0.0000000000
    22     -0.0000000000
    23     -0.0000000000
    24     -0.0000000000
    25      0.0000000000
    26     -0.0000000000
    27     -0.7180362890
    28     -0.0152476131
Ene=      0.00000000
Spin= Alpha
Occup=  0.004869
     1      0.0000000000
     2      0.0000000000
     3      0.0000000000
     4     -0.0000000000
     5     -0.0000000000
     6      0.0000000000
     7      0.0000000000
     8      0.0000000000
     9     -0.0000000000
    10      0.0000000000
    11      0.0000000000
    12     -0.0000000000
    13     -0.0127856926
    14      0.6020939600
    15      0.0000000000
    16      0.0000000000
    17     -0.0000000000
    18     -0.0000000000
    19     -0.0000000000
    20      0.0000000000
    21      0.0000000000
    22      0.0000000000
    23      0.0000000000
    24      0.0000000000
    25     -0.0000000000
    26      0.0000000000
    27     -0.0152476120
    28      0.7180363130
Ene=      0.00000000
Spin= Alpha
Occup=  0.002149
     1      0.0070225942
     2     -0.1919420660
     3      0.2012702650
     4     -0.0000000000
     5      0.0000000000
     6     -0.6641764990
     7      0.0000000000
     8     -0.0000000000
     9      0.4428109820
    10     -1.1766886200
    11     -0.0000000000
    12      0.0000000000
    13     -0.0000000000
    14      0.0000000000
    15      0.5110620700
    16      2.1346842600
    17     -1.7460263800
    18      0.0000000000
    19     -0.0000000000
    20     -0.9978811590
    21      0.0000000000
    22     -0.0000000000
    23      0.8584009730
    24      0.3992176320
    25     -0.0000000000
    26      0.0000000000
    27      0.0000000000
    28     -0.0000000000
Ene=      0.00000000
Spin= Alpha
Occup=  0.002003
     1     -0.0000000000
     2     -0.0000000000
     3      0.0000000000
     4      0.0000000000
     5      0.0000000000
     6     -0.0000000000
     7     -0.0000000000
     8     -0.0000000000
     9      0.0000000000
    10     -0.0000000000
    11      0.0000000000
    12      0.0000000000
    13      0.4885707320
    14     -0.6471062630
    15      0.0000000000
    16      0.0000000000
    17     -0.0000000000
    18     -0.0000000000
    19      0.0000000000
    20     -0.0000000000
    21     -0.0000000000
    22     -0.0000000000
    23      0.0000000000
    24      0.0000000000
    25      0.0000000000
    26      0.0000000000
    27     -0.4279073510
    28      0.5667584800
Ene=      0.00000000
Spin= Alpha
Occup=  0.002003
     1     -0.0000000000
     2     -0.0000000000
     3      0.0000000000
     4     -0.0000000000
     5     -0.0000000000
     6     -0.0000000000
     7      0.0000000000
     8      0.0000000000
     9      0.0000000000
    10     -0.0000000000
    11     -0.0000000000
    12     -0.0000000000
    13      0.6471062470
    14      0.4885707450
    15      0.0000000000
    16      0.0000000000
    17     -0.0000000000
    18      0.0000000000
    19      0.0000000000
    20     -0.0000000000
    21      0.0000000000
    22      0.0000000000
    23      0.0000000000
    24      0.0000000000
    25     -0.0000000000
    26     -0.0000000000
    27     -0.5667584990
    28     -0.4279073360
Ene=      0.00000000
Spin= Alpha
Occup=  0.001724
     1     -0.0000000000
     2     -0.0000000000
     3      0.0000000000
     4      1.0620166800
     5      0.2340199150
     6     -0.0000000000
     7     -1.1144555300
     8     -0.2455755260
     9      0.0000000000
    10     -0.0000000000
    11      0.5951664930
    12      0.1311464550
    13     -0.0000000000
    14      0.0000000000
    15      0.0000000000
    16      0.0000000000
    17     -0.0000000000
    18     -0.1871953410
    19     -0.0412488846
    20     -0.0000000000
    21      0.0214218380
    22      0.0047205999
    23      0.0000000000
    24      0.0000000000
    25      0.8238693260
    26      0.1815423410
    27      0.0000000000
    28     -0.0000000000
Ene=      0.00000000
Spin= Alpha
Occup=  0.001724
     1     -0.0000000000
     2     -0.0000000000
     3      0.0000000000
     4     -0.2340199150
     5      1.0620166800
     6      0.0000000000
     7      0.2455755260
     8     -1.1144555300
     9     -0.0000000000
    10      0.0000000000
    11     -0.1311464550
    12      0.5951664930
    13      0.0000000000
    14      0.0000000000
    15     -0.0000000000
    16     -0.0000000000
    17      0.0000000000
    18      0.0412488846
    19     -0.1871953410
    20      0.0000000000
    21     -0.0047205999
    22      0.0214218380
    23     -0.0000000000
    24      0.0000000000
    25     -0.1815423410
    26      0.8238693260
    27     -0.0000000000
    28     -0.0000000000
Ene=      0.00000000
Spin= Alpha
Occup=  0.001025
     1     -0.6724791080
     2     -2.7477442600
     3      1.7535123000
     4     -0.0000000000
     5     -0.0000000000
     6     -1.4956527100
     7      0.0000000000
     8      0.0000000000
     9      1.1980510000
    10      0.1196281010
    11      0.0000000000
    12      0.0000000000
    13     -0.0000000000
    14      0.0000000000
    15     -0.2114745980
    16     -0.7514203460
    17      1.2840707100
    18      0.0000000000
    19      0.0000000000
    20      0.1734130070
    21     -0.0000000000
    22     -0.0000000000
    23     -1.3571867500
    24      0.9567978330
    25     -0.0000000000
    26     -0.0000000000
    27      0.0000000000
    28     -0.0000000000
Ene=      0.00000000
Spin= Alpha
Occup=  0.000694
     1     -0.0000000000
     2     -0.0000000000
     3      0.0000000000
     4      0.3552375200
     5      0.2354261670
     6     -0.0000000000
     7     -1.2002656700
     8     -0.7954479750
     9     -0.0000000000
    10     -0.0000000000
    11     -0.6879501570
    12     -0.4559220230
    13      0.0000000000
    14     -0.0000000000
    15     -0.0000000000
    16     -0.0000000000
    17      0.0000000000
    18     -0.3133875410
    19     -0.2076894020
    20     -0.0000000000
    21      1.1794674800
    22      0.7816625670
    23     -0.0000000000
    24      0.0000000000
    25     -0.4425776660
    26     -0.2933070320
    27     -0.0000000000
    28      0.0000000000
Ene=      0.00000000
Spin= Alpha
Occup=  0.000694
     1     -0.0000000000
     2     -0.0000000000
     3      0.0000000000
     4     -0.2354261670
     5      0.3552375200
     6     -0.0000000000
     7      0.7954479750
     8     -1.2002656700
     9      0.0000000000
    10     -0.0000000000
    11      0.4559220230
    12     -0.6879501570
    13      0.0000000000
    14     -0.0000000000
    15      0.0000000000
    16      0.0000000000
    17     -0.0000000000
    18      0.2076894020
    19     -0.3133875410
    20     -0.0000000000
    21     -0.7816625670
    22      1.1794674800
    23     -0.0000000000
    24      0.0000000000
    25      0.2933070320
    26     -0.4425776660
    27     -0.0000000000
    28      0.0000000000
Ene=      0.00000000
Spin= Alpha
Occup=  0.000233
     1      0.2682589020
     2      1.0942276800
     3      2.1992487700
     4     -0.0000000000
     5     -0.0000000000
     6      1.0752647700
     7     -0.0000000000
     8     -0.0000000000
     9      1.7634224200
    10      0.8465403630
    11     -0.0000000000
    12     -0.0000000000
    13     -0.0000000000
    14     -0.0000000000
    15      0.5892729950
    16      2.2339371100
    17     -6.0644388900
    18     -0.0000000000
    19     -0.0000000000
    20      0.3224554750
    21      0.0000000000
    22      0.0000000000
    23      1.4645722800
    24     -0.4004802420
    25     -0.0000000000
    26     -0.0000000000
    27      0.0000000000
    28      0.0000000000
