5
Energy:  -138.17325261
C       -2.66109123    -0.44133570     0.02859368
H       -2.26345465    -1.23113808     0.68667126
H       -2.29480038    -0.62114593    -0.99558512
H       -2.27313770     0.53094288     0.37403846
F       -4.03265622    -0.44470353     0.05274047
