[Molden Format]
[Title]
 Molden file created by orca_2mkl for BaseName=MP2-unrelax

[Atoms] AU
C    1   6          0.0000000000         0.0000000000         0.0000000000
O    2   8          0.0000000000         0.0000000000         2.1342566957
[GTO]
  1 0
s   8 1.0
     6665.0000000000         0.3635842998
     1000.0000000000         0.6749857928
      228.0000000000         1.1316199410
       64.7100000000         1.6530092121
       21.0600000000         1.9238206437
        7.4950000000         1.4472783162
        2.7970000000         0.4391631292
        0.5215000000         0.0066458037
s   8 1.0
     6665.0000000000        -0.1541797483
     1000.0000000000        -0.2937853735
      228.0000000000        -0.4808958038
       64.7100000000        -0.7614343161
       21.0600000000        -0.9001038923
        7.4950000000        -0.9726113518
        2.7970000000        -0.3940419460
        0.5215000000         0.4783944249
s   1 1.0
        0.1596000000         0.1799636353
p   3 1.0
        9.4390000000         1.3437371095
        2.0020000000         1.0631680879
        0.5456000000         0.5082318338
p   1 1.0
        0.1517000000         0.1349497436
d   1 1.0
        0.5500000000         1.0013935509

  2 0
s   8 1.0
    11720.0000000000         0.5697017158
     1759.0000000000         1.0583521000
      400.8000000000         1.7762810558
      113.7000000000         2.5994118899
       37.0300000000         3.0268459958
       13.2700000000         2.2223943344
        5.0250000000         0.6477954310
        1.0130000000         0.0111186960
s   8 1.0
    11720.0000000000        -0.2524342625
     1759.0000000000        -0.4804910908
      400.8000000000        -0.7862996613
      113.7000000000        -1.2541699039
       37.0300000000        -1.4912179216
       13.2700000000        -1.6108317779
        5.0250000000        -0.5497983753
        1.0130000000         0.7882822080
s   1 1.0
        0.3023000000         0.2905619240
p   3 1.0
       17.7000000000         3.2436193456
        3.8540000000         2.5672796523
        1.0460000000         1.1176693232
p   1 1.0
        0.2753000000         0.2842482844
d   1 1.0
        1.1850000000         3.8368709885

[5D]
[7F]
[9G]
[MO]
 Sym=     1a
 Ene= -2.06693598455662E+01
 Spin= Alpha
 Occup= 2.000000
  1       0.517750039912
  2       0.001112110783
  3      -0.001916337178
  4      -0.000000000000
  5      -0.000000000000
  6       0.002220780976
  7      -0.000000000000
  8      -0.000000000000
  9      -0.000512523036
 10       0.001479840581
 11      -0.000000000000
 12      -0.000000000000
 13       0.000000000000
 14       0.000000000000
 15      -0.857090392910
 16      -0.001055990367
 17       0.002159381113
 18      -0.000000000000
 19      -0.000000000000
 20       0.001346059042
 21      -0.000000000000
 22      -0.000000000000
 23       0.000218910946
 24      -0.000312436803
 25       0.000000000000
 26       0.000000000000
 27       0.000000000000
 28      -0.000000000000
 Sym=     1a
 Ene= -1.13671123447829E+01
 Spin= Alpha
 Occup= 2.000000
  1      -0.857057528942
  2      -0.001778261097
  3      -0.000438106881
  4       0.000000000000
  5      -0.000000000000
  6      -0.003137059294
  7       0.000000000000
  8      -0.000000000000
  9      -0.001420017759
 10      -0.001339671130
 11      -0.000000000000
 12      -0.000000000000
 13       0.000000000000
 14      -0.000000000000
 15      -0.517435336282
 16      -0.001411956374
 17       0.005942979955
 18       0.000000000000
 19      -0.000000000000
 20       0.001184044534
 21       0.000000000000
 22      -0.000000000000
 23      -0.002816474215
 24      -0.000253794792
 25       0.000000000000
 26       0.000000000000
 27      -0.000000000000
 28       0.000000000000
 Sym=     1a
 Ene= -1.52210282387839E+00
 Spin= Alpha
 Occup= 1.987707
  1      -0.017898363464
  2       0.210625030825
  3       0.179835418366
  4      -0.000000000000
  5       0.000000000000
  6       0.064695854409
  7      -0.000000000000
  8       0.000000000000
  9      -0.019329233414
 10       0.030115528039
 11      -0.000000000000
 12       0.000000000000
 13       0.000000000000
 14       0.000000000000
 15      -0.008424176143
 16       0.441157300899
 17       0.410784210072
 18      -0.000000000000
 19       0.000000000000
 20       0.016752296322
 21      -0.000000000000
 22       0.000000000000
 23       0.066650194704
 24       0.010755665275
 25       0.000000000000
 26      -0.000000000000
 27      -0.000000000000
 28      -0.000000000000
 Sym=     1a
 Ene= -8.01996231620588E-01
 Spin= Alpha
 Occup= 1.971417
  1      -0.004416106863
  2      -0.393958325713
  3      -0.293236164935
  4      -0.000000000000
  5       0.000000000000
  6      -0.038306386204
  7      -0.000000000000
  8       0.000000000000
  9       0.080019033453
 10      -0.015043710668
 11      -0.000000000000
 12       0.000000000000
 13       0.000000000000
 14      -0.000000000000
 15       0.004632925298
 16       0.172646798042
 17       0.317071002516
 18      -0.000000000000
 19       0.000000000000
 20       0.433054982310
 21      -0.000000000000
 22       0.000000000000
 23       0.215164703556
 24      -0.021990846028
 25       0.000000000000
 26      -0.000000000000
 27      -0.000000000000
 28       0.000000000000
 Sym=     1a
 Ene= -6.33897020990035E-01
 Spin= Alpha
 Occup= 1.965315
  1       0.003124493549
  2      -0.151632283917
  3      -0.492715851911
  4       0.000000000000
  5       0.000000000000
  6       0.510333453943
  7      -0.000000000000
  8       0.000000000000
  9       0.147182246896
 10       0.048278679998
 11       0.000000000000
 12       0.000000000000
 13       0.000000000000
 14      -0.000000000000
 15      -0.003066226391
 16       0.101292516028
 17       0.027657402402
 18       0.000000000000
 19       0.000000000000
 20      -0.384982847745
 21       0.000000000000
 22       0.000000000000
 23      -0.203073329196
 24       0.024813573172
 25      -0.000000000000
 26      -0.000000000000
 27       0.000000000000
 28      -0.000000000000
 Sym=     1a
 Ene= -6.33897020990034E-01
 Spin= Alpha
 Occup= 1.945550
  1       0.000000000000
  2      -0.000000000000
  3       0.000000000000
  4       0.261764092295
  5       0.136347819327
  6      -0.000000000000
  7       0.117821520232
  8       0.061370936768
  9      -0.000000000000
 10      -0.000000000000
 11       0.056271605414
 12       0.029310783977
 13      -0.000000000000
 14      -0.000000000000
 15      -0.000000000000
 16      -0.000000000000
 17      -0.000000000000
 18       0.486040262199
 19       0.253168910363
 20       0.000000000000
 21       0.314751266068
 22       0.163947806901
 23      -0.000000000000
 24      -0.000000000000
 25      -0.027175892390
 26      -0.014155393292
 27      -0.000000000000
 28       0.000000000000
 Sym=     1a
 Ene= -5.48958016315842E-01
 Spin= Alpha
 Occup= 1.945550
  1      -0.000000000000
  2       0.000000000000
  3       0.000000000000
  4      -0.136347819327
  5       0.261764092295
  6      -0.000000000000
  7      -0.061370936768
  8       0.117821520232
  9      -0.000000000000
 10      -0.000000000000
 11      -0.029310783977
 12       0.056271605414
 13      -0.000000000000
 14      -0.000000000000
 15      -0.000000000000
 16      -0.000000000000
 17      -0.000000000000
 18      -0.253168910363
 19       0.486040262199
 20      -0.000000000000
 21      -0.163947806901
 22       0.314751266068
 23      -0.000000000000
 24       0.000000000000
 25       0.014155393292
 26      -0.027175892390
 27      -0.000000000000
 28      -0.000000000000
 Sym=     1a
 Ene= 1.54142745874098E-01
 Spin= Alpha
 Occup= 0.049825
  1       0.000000000000
  2       0.000000000000
  3      -0.000000000000
  4      -0.266100989849
  5      -0.593318144977
  6       0.000000000000
  7      -0.107677822360
  8      -0.240086315428
  9      -0.000000000000
 10      -0.000000000000
 11      -0.008735777967
 12      -0.019477927036
 13      -0.000000000000
 14      -0.000000000000
 15       0.000000000000
 16       0.000000000000
 17      -0.000000000000
 18       0.283129099966
 19       0.631285260099
 20       0.000000000000
 21      -0.014189200910
 22      -0.031637275398
 23      -0.000000000000
 24      -0.000000000000
 25       0.019000140159
 26       0.042364096132
 27      -0.000000000000
 28      -0.000000000000
 Sym=     1a
 Ene= 1.54142745874098E-01
 Spin= Alpha
 Occup= 0.049825
  1       0.000000000000
  2       0.000000000000
  3       0.000000000000
  4      -0.593318144977
  5       0.266100989849
  6      -0.000000000000
  7      -0.240086315428
  8       0.107677822360
  9       0.000000000000
 10       0.000000000000
 11      -0.019477927036
 12       0.008735777967
 13      -0.000000000000
 14       0.000000000000
 15      -0.000000000000
 16      -0.000000000000
 17      -0.000000000000
 18       0.631285260099
 19      -0.283129099966
 20       0.000000000000
 21      -0.031637275398
 22       0.014189200910
 23       0.000000000000
 24      -0.000000000000
 25       0.042364096132
 26      -0.019000140159
 27       0.000000000000
 28       0.000000000000
 Sym=     1a
 Ene= 3.82491972276758E-01
 Spin= Alpha
 Occup= 0.022931
  1       0.119123607363
  2       0.469441362542
  3       0.130788638893
  4      -0.000000000000
  5       0.000000000000
  6       0.882811257029
  7      -0.000000000000
  8       0.000000000000
  9       0.068515233709
 10      -0.010255735218
 11       0.000000000000
 12      -0.000000000000
 13      -0.000000000000
 14      -0.000000000000
 15      -0.076518666444
 16      -0.314086859703
 17      -0.396184509885
 18      -0.000000000000
 19      -0.000000000000
 20       0.898858971845
 21       0.000000000000
 22       0.000000000000
 23      -0.123762423087
 24       0.056577601962
 25       0.000000000000
 26      -0.000000000000
 27      -0.000000000000
 28      -0.000000000000
 Sym=     1a
 Ene= 6.72170213989205E-01
 Spin= Alpha
 Occup= 0.011120
  1      -0.242635445653
  2      -0.588209239318
  3       0.777259546641
  4       0.000000000000
  5      -0.000000000000
  6       0.249502494845
  7       0.000000000000
  8       0.000000000000
  9       0.024444639917
 10      -0.056624069941
 11      -0.000000000000
 12       0.000000000000
 13      -0.000000000000
 14       0.000000000000
 15      -0.443953494766
 16      -1.143913179476
 17       0.828566140260
 18       0.000000000000
 19       0.000000000000
 20      -0.363286882280
 21      -0.000000000000
 22      -0.000000000000
 23       0.509317542911
 24      -0.033115494414
 25       0.000000000000
 26       0.000000000000
 27      -0.000000000000
 28       0.000000000000
 Sym=     1a
 Ene= 6.72170213989206E-01
 Spin= Alpha
 Occup= 0.006731
  1      -0.501003480104
  2      -1.268955993703
  3       1.334843384666
  4      -0.000000000000
  5       0.000000000000
  6       0.392371374222
  7       0.000000000000
  8       0.000000000000
  9      -0.365880706471
 10      -0.071808960196
 11       0.000000000000
 12       0.000000000000
 13       0.000000000000
 14       0.000000000000
 15       0.278440506200
 16       0.682399707752
 17      -0.773145414207
 18      -0.000000000000
 19       0.000000000000
 20       0.103034292046
 21       0.000000000000
 22      -0.000000000000
 23      -0.201508961398
 24      -0.099454429553
 25       0.000000000000
 26      -0.000000000000
 27      -0.000000000000
 28      -0.000000000000
 Sym=     1a
 Ene= 7.26388363652091E-01
 Spin= Alpha
 Occup= 0.006096
  1      -0.000000000000
  2      -0.000000000000
  3      -0.000000000000
  4       0.110519461536
  5       0.494184915486
  6      -0.000000000000
  7      -0.037191791042
  8      -0.166302135616
  9      -0.000000000000
 10      -0.000000000000
 11       0.033189690708
 12       0.148406844819
 13       0.000000000000
 14      -0.000000000000
 15      -0.000000000000
 16      -0.000000000000
 17       0.000000000000
 18       0.119038696666
 19       0.532278453314
 20       0.000000000000
 21      -0.192509934428
 22      -0.860803192976
 23      -0.000000000000
 24       0.000000000000
 25      -0.098707423983
 26      -0.441367694805
 27      -0.000000000000
 28      -0.000000000000
 Sym=     1a
 Ene= 1.01685116445859E+00
 Spin= Alpha
 Occup= 0.006096
  1      -0.000000000000
  2      -0.000000000000
  3       0.000000000000
  4       0.494184915486
  5      -0.110519461536
  6       0.000000000000
  7      -0.166302135616
  8       0.037191791042
  9      -0.000000000000
 10      -0.000000000000
 11       0.148406844819
 12      -0.033189690708
 13      -0.000000000000
 14      -0.000000000000
 15       0.000000000000
 16       0.000000000000
 17      -0.000000000000
 18       0.532278453314
 19      -0.119038696666
 20      -0.000000000000
 21      -0.860803192976
 22       0.192509934428
 23       0.000000000000
 24       0.000000000000
 25      -0.441367694805
 26       0.098707423983
 27      -0.000000000000
 28      -0.000000000000
 Sym=     1a
 Ene= 1.06145276150441E+00
 Spin= Alpha
 Occup= 0.005744
  1       0.143611726590
  2       0.262148758498
  3       0.426147524461
  4      -0.000000000000
  5       0.000000000000
  6       0.431968529565
  7       0.000000000000
  8       0.000000000000
  9      -0.301609793511
 10       0.262245066791
 11       0.000000000000
 12       0.000000000000
 13       0.000000000000
 14       0.000000000000
 15       0.122222231562
 16       0.259466678176
 17      -0.706338001073
 18      -0.000000000000
 19       0.000000000000
 20      -0.194647862443
 21       0.000000000000
 22      -0.000000000000
 23       0.910661986727
 24       0.559514178431
 25       0.000000000000
 26       0.000000000000
 27      -0.000000000000
 28      -0.000000000000
 Sym=     1a
 Ene= 1.22461869091018E+00
 Spin= Alpha
 Occup= 0.004622
  1       0.000000000000
  2       0.000000000000
  3      -0.000000000000
  4       0.028603544152
  5      -0.264150388512
  6      -0.000000000000
  7       0.012188725798
  8      -0.112561463662
  9      -0.000000000000
 10      -0.000000000000
 11      -0.076100237850
 12       0.702776805156
 13       0.000000000000
 14       0.000000000001
 15      -0.000000000000
 16      -0.000000000000
 17       0.000000000000
 18       0.052442974939
 19      -0.484304750165
 20      -0.000000000000
 21      -0.037767905231
 22       0.348782198202
 23      -0.000000000000
 24      -0.000000000000
 25       0.039441342387
 26      -0.364236186502
 27       0.000000000000
 28       0.000000000001
 Sym=     1a
 Ene= 1.22461869091018E+00
 Spin= Alpha
 Occup= 0.004622
  1      -0.000000000000
  2      -0.000000000000
  3      -0.000000000000
  4       0.264150388512
  5       0.028603544152
  6      -0.000000000000
  7       0.112561463662
  8       0.012188725798
  9      -0.000000000000
 10       0.000000000000
 11      -0.702776805156
 12      -0.076100237850
 13       0.000000000000
 14      -0.000000000000
 15      -0.000000000000
 16      -0.000000000000
 17       0.000000000000
 18       0.484304750165
 19       0.052442974939
 20       0.000000000000
 21      -0.348782198202
 22      -0.037767905232
 23      -0.000000000000
 24       0.000000000000
 25       0.364236186503
 26       0.039441342387
 27       0.000000000000
 28      -0.000000000000
 Sym=     1a
 Ene= 1.34421509905793E+00
 Spin= Alpha
 Occup= 0.004186
  1       0.000000000000
  2       0.000000000000
  3      -0.000000000000
  4      -0.000000000000
  5       0.000000000000
  6       0.000000000000
  7      -0.000000000000
  8       0.000000000000
  9      -0.000000000000
 10      -0.000000000000
 11       0.000000000000
 12      -0.000000000000
 13       0.492702093589
 14      -0.118972479419
 15       0.000000000000
 16       0.000000000000
 17       0.000000000000
 18      -0.000000000000
 19       0.000000000000
 20      -0.000000000000
 21       0.000000000000
 22      -0.000000000000
 23       0.000000000000
 24       0.000000000000
 25      -0.000000000000
 26       0.000000000000
 27       0.771587940157
 28      -0.186314877821
 Sym=     1a
 Ene= 1.34421509905793E+00
 Spin= Alpha
 Occup= 0.004186
  1      -0.000000000000
  2      -0.000000000000
  3      -0.000000000000
  4       0.000000000000
  5       0.000000000001
  6      -0.000000000000
  7      -0.000000000000
  8       0.000000000000
  9      -0.000000000000
 10      -0.000000000000
 11       0.000000000000
 12      -0.000000000001
 13       0.118972479419
 14       0.492702093589
 15      -0.000000000000
 16      -0.000000000000
 17       0.000000000000
 18      -0.000000000000
 19       0.000000000001
 20       0.000000000000
 21       0.000000000000
 22      -0.000000000001
 23      -0.000000000000
 24       0.000000000000
 25      -0.000000000000
 26       0.000000000001
 27       0.186314877821
 28       0.771587940157
 Sym=     1a
 Ene= 1.55740114823369E+00
 Spin= Alpha
 Occup= 0.001561
  1      -0.017917559871
  2      -0.131233736727
  3      -0.045266419598
  4      -0.000000000000
  5      -0.000000000000
  6      -0.478443570431
  7      -0.000000000000
  8      -0.000000000000
  9       0.075505886585
 10      -1.238380504908
 11      -0.000000000000
 12      -0.000000000000
 13      -0.000000000000
 14      -0.000000000000
 15       0.445754580588
 16       0.934737267430
 17      -0.220093618270
 18       0.000000000000
 19       0.000000000000
 20      -0.662864120815
 21       0.000000000000
 22       0.000000000000
 23       0.272154718270
 24       0.387916701763
 25      -0.000000000000
 26      -0.000000000000
 27       0.000000000000
 28       0.000000000000
 Sym=     1a
 Ene= 1.55740114823369E+00
 Spin= Alpha
 Occup= 0.001307
  1       0.000000000000
  2       0.000000000000
  3       0.000000000000
  4       0.000000000000
  5       0.000000000000
  6       0.000000000000
  7      -0.000000000000
  8      -0.000000000000
  9       0.000000000000
 10       0.000000000000
 11       0.000000000000
 12       0.000000000000
 13      -0.763299385980
 14       0.424962046468
 15       0.000000000000
 16       0.000000000000
 17      -0.000000000000
 18      -0.000000000000
 19      -0.000000000000
 20      -0.000000000000
 21       0.000000000000
 22      -0.000000000000
 23       0.000000000000
 24       0.000000000000
 25       0.000000000000
 26       0.000000000000
 27       0.545682710301
 28      -0.303805355527
 Sym=     1a
 Ene= 1.93895577524525E+00
 Spin= Alpha
 Occup= 0.001307
  1      -0.000000000000
  2      -0.000000000000
  3      -0.000000000000
  4      -0.000000000000
  5      -0.000000000000
  6      -0.000000000000
  7       0.000000000000
  8       0.000000000000
  9      -0.000000000000
 10       0.000000000000
 11      -0.000000000000
 12      -0.000000000000
 13      -0.424962046468
 14      -0.763299385980
 15      -0.000000000000
 16      -0.000000000000
 17       0.000000000000
 18       0.000000000000
 19       0.000000000000
 20       0.000000000000
 21      -0.000000000000
 22      -0.000000000000
 23      -0.000000000000
 24       0.000000000000
 25      -0.000000000000
 26      -0.000000000000
 27       0.303805355527
 28       0.545682710301
 Sym=     1a
 Ene= 2.34061292694942E+00
 Spin= Alpha
 Occup= 0.001233
  1      -0.000000000000
  2      -0.000000000000
  3      -0.000000000000
  4       0.527204061794
  5      -0.494476300073
  6       0.000000000000
  7      -0.428211422143
  8       0.401628923402
  9      -0.000000000000
 10       0.000000000000
 11       0.491683113964
 12      -0.461160420934
 13      -0.000000000000
 14       0.000000000000
 15      -0.000000000000
 16      -0.000000000000
 17       0.000000000000
 18      -0.085953281479
 19       0.080617476125
 20       0.000000000000
 21      -0.098816989391
 22       0.092682629697
 23      -0.000000000000
 24      -0.000000000000
 25       0.612445656702
 26      -0.574426269140
 27       0.000000000000
 28      -0.000000000000
 Sym=     1a
 Ene= 2.93693538773815E+00
 Spin= Alpha
 Occup= 0.001233
  1      -0.000000000000
  2      -0.000000000000
  3      -0.000000000000
  4      -0.494476300073
  5      -0.527204061794
  6      -0.000000000000
  7       0.401628923402
  8       0.428211422143
  9      -0.000000000000
 10      -0.000000000000
 11      -0.461160420934
 12      -0.491683113964
 13      -0.000000000000
 14       0.000000000001
 15      -0.000000000000
 16      -0.000000000000
 17       0.000000000000
 18       0.080617476125
 19       0.085953281479
 20       0.000000000000
 21       0.092682629697
 22       0.098816989391
 23      -0.000000000000
 24       0.000000000000
 25      -0.574426269140
 26      -0.612445656702
 27       0.000000000000
 28      -0.000000000000
 Sym=     1a
 Ene= 2.93693538773815E+00
 Spin= Alpha
 Occup= 0.000789
  1      -0.676408677926
  2      -1.370329917026
  3       0.010359753181
  4       0.000000000000
  5       0.000000000000
  6      -1.033859022762
  7       0.000000000000
  8       0.000000000000
  9       0.393437838814
 10       0.097837578592
 11       0.000000000000
 12       0.000000000000
 13       0.000000000000
 14       0.000000000000
 15      -0.243162515437
 16      -0.443561510861
 17       1.077252156022
 18      -0.000000000000
 19      -0.000000000000
 20       0.119565190656
 21      -0.000000000000
 22      -0.000000000000
 23      -1.353338469374
 24       0.972284885639
 25       0.000000000000
 26       0.000000000000
 27      -0.000000000000
 28      -0.000000000000
 Sym=     1a
 Ene= 3.42516148602067E+00
 Spin= Alpha
 Occup= 0.000445
  1       0.000000000000
  2       0.000000000000
  3       0.000000000000
  4      -0.219688262060
  5      -0.219778612424
  6       0.000000000000
  7       0.899254813089
  8       0.899624646879
  9       0.000000000000
 10       0.000000000000
 11       0.565584063195
 12       0.565816669586
 13       0.000000000000
 14       0.000000000000
 15       0.000000000000
 16       0.000000000000
 17      -0.000000000000
 18       0.175673728567
 19       0.175745976828
 20      -0.000000000000
 21      -0.867632606314
 22      -0.867989434148
 23       0.000000000000
 24      -0.000000000000
 25       0.350607708021
 26       0.350751901590
 27       0.000000000000
 28      -0.000000000000
 Sym=     1a
 Ene= 3.42516148602067E+00
 Spin= Alpha
 Occup= 0.000445
  1      -0.000000000000
  2      -0.000000000000
  3       0.000000000000
  4       0.219778612424
  5      -0.219688262060
  6       0.000000000000
  7      -0.899624646879
  8       0.899254813089
  9       0.000000000000
 10       0.000000000000
 11      -0.565816669586
 12       0.565584063195
 13       0.000000000000
 14      -0.000000000000
 15       0.000000000000
 16       0.000000000000
 17      -0.000000000000
 18      -0.175745976828
 19       0.175673728567
 20       0.000000000000
 21       0.867989434148
 22      -0.867632606314
 23       0.000000000000
 24       0.000000000000
 25      -0.350751901590
 26       0.350607708021
 27      -0.000000000000
 28       0.000000000000
 Sym=     1a
 Ene= 3.87015679163642E+00
 Spin= Alpha
 Occup= 0.000156
  1      -0.238926669915
  2      -0.484320414400
  3      -2.832466984460
  4       0.000000000000
  5       0.000000000000
  6      -0.645412946103
  7       0.000000000000
  8       0.000000000000
  9      -2.302765741789
 10      -0.795256170937
 11       0.000000000000
 12       0.000000000000
 13       0.000000000000
 14       0.000000000000
 15      -0.585191131008
 16      -1.125476383740
 17       4.721802700286
 18      -0.000000000000
 19      -0.000000000000
 20      -0.192029404336
 21      -0.000000000000
 22      -0.000000000000
 23      -1.573991438670
 24       0.343756236990
 25       0.000000000000
 26       0.000000000000
 27      -0.000000000000
 28      -0.000000000000
