[Molden Format]
made by pyscf v[2.3.0]
[Atoms] (AU)
C   1   6     0.00000000000000     0.00000000000000     0.00000000000000
O   2   8     0.00000000000000     0.00000000000000     2.13425668508378
[GTO]
1 0
 s    8 1.00
                  6665  0.00069158396281299
                  1000  0.0053257961529341
                   228   0.027060721042034
                 64.71    0.10165684614077
                 21.06     0.2745748236174
                 7.495    0.44829431892377
                 2.797    0.28490261071525
                0.5215   0.015194859206082
 s    8 1.00
                  6665  -0.00029326965268655
                  1000  -0.0023180354739745
                   228  -0.011499786038565
                 64.71  -0.046826727009787
                 21.06   -0.12846616875047
                 7.495   -0.30126627246289
                 2.797   -0.25563070233011
                0.5215      1.093793361012
 s    1 1.00
                0.1596                   1
 p    3 1.00
                 9.439   0.056979251590039
                 2.002    0.31320721150073
                0.5456    0.76037674173753
 p    1 1.00
                0.1517                   1
 d    1 1.00
                  0.55                   1

2 0
 s    8 1.00
                 11720  0.00070964594651845
                  1759  0.0054672722921914
                 400.8   0.027823118610189
                 113.7    0.10474773971146
                 37.03    0.28292084635691
                 13.27    0.44849523869833
                 5.025    0.27081688521277
                 1.013    0.01545029160744
 s    8 1.00
                 11720  -0.00031444341168873
                  1759  -0.0024821376810179
                 400.8  -0.012316355381583
                 113.7  -0.050538917343672
                 37.03   -0.13938490331632
                 13.27   -0.32507749481778
                 5.025   -0.22984830758785
                 1.013     1.0953793467883
 s    1 1.00
                0.3023                   1
 p    3 1.00
                  17.7   0.062679166281506
                 3.854    0.33353656587936
                 1.046    0.74123964163973
 p    1 1.00
                0.2753                   1
 d    1 1.00
                 1.185                   1

[5d]
[7f]
[9g]

[MO]
 Sym= A
 Ene=               0
 Spin= Alpha
 Occup=    2.00000
   1       1.0012998729016
   2    0.0020970123606738
   3    -0.00060963256153314
   4    3.2631987229994e-17
   5    -6.8910232822888e-17
   6    0.0038324893225033
   7    1.6395226038123e-17
   8    1.3590650175582e-17
   9    0.00095436626088884
  10    0.0019099322313925
  11    -1.4230488775029e-17
  12    1.8389447408099e-17
  13    -5.9577478320224e-19
  14    -8.1395839438964e-18
  15    0.0030714654581224
  16    0.00066799988245482
  17    -0.003986756736947
  18    -3.7951729958357e-17
  19    -8.5586496745724e-18
  20    -0.00032337340621701
  21    3.9449452255641e-18
  22    4.2090918621995e-17
  23    0.0025281686728719
  24    5.7016811339851e-05
  25    1.3590508680989e-17
  26    2.9162804463091e-17
  27    -4.2266282454083e-18
  28    -9.8119621410711e-19
 Sym= A
 Ene=               0
 Spin= Alpha
 Occup=    2.00000
   1    0.0033582760782613
   2    3.9439167300605e-05
   3    -0.001868858418294
   4    5.8738984943752e-16
   5    9.3728162430865e-17
   6    0.00029161606328519
   7    1.7009164280003e-16
   8    2.3992102569656e-16
   9    -0.0011697499109526
  10    0.00058035358636952
  11    9.0717155521388e-17
  12    -6.6864417913839e-17
  13    -8.7267213787625e-20
  14    -3.5433183245639e-17
  15      -1.0011662366141
  16    -0.0016317177994421
  17     0.004907921990386
  18    8.0286459115488e-16
  19    2.7100683574735e-16
  20    0.0017633116249228
  21    4.9556074357572e-16
  22    1.807813220447e-16
  23    -0.0012604815671534
  24    -0.00039846871175531
  25    -3.904511558856e-17
  26    -1.5932437358361e-17
  27    1.8688727889093e-18
  28    1.8697386667837e-18
 Sym= A
 Ene=               0
 Spin= Alpha
 Occup=    1.98518
   1    -0.018015381819801
   2      0.16628169838834
   3      0.11608799849425
   4    1.5213798398631e-17
   5    2.1137592252601e-15
   6      0.12049654297087
   7    -4.0505137974708e-17
   8    1.2172355176601e-15
   9      0.00922693245536
  10     0.033258230357936
  11    1.9442650142516e-17
  12    3.7117881402036e-16
  13    -1.3754008449437e-18
  14    -2.8706259606255e-19
  15    -0.005790787620753
  16      0.46442990736513
  17      0.41537815979304
  18    6.807979345914e-17
  19    3.6155450630155e-15
  20    -0.0058986967049155
  21    6.8242567349614e-17
  22    2.1850987839128e-15
  23     0.062475802140774
  24     0.010533814780451
  25    -4.1365396343402e-18
  26    -1.824423908192e-16
  27    -3.8786879093043e-18
  28    1.7183212526975e-19
 Sym= A
 Ene=               0
 Spin= Alpha
 Occup=    1.97142
   1    0.0064683868740612
   2      0.25316921759161
   3    -0.022636764918674
   4    -6.1978390978923e-16
   5    5.0409771006605e-15
   6      0.29948085326296
   7    -2.0159001680526e-16
   8    2.1322273837875e-15
   9    0.0038793013644525
  10      0.03188197123967
  11    -1.021712648067e-16
  12    9.0519583388279e-16
  13    3.8810520239202e-17
  14    -2.5631170417809e-18
  15    -0.0045028972596867
  16    -0.095096089745321
  17     -0.25002387162909
  18    -9.2457386907357e-16
  19    7.9234477960967e-15
  20     -0.57399160820405
  21    -5.3869401770059e-16
  22    4.7702403796922e-15
  23     -0.29281080153193
  24     0.029925559797007
  25    5.1773905645855e-17
  26    -4.0300111616854e-16
  27    6.4722316067295e-18
  28    -5.6488496720369e-20
 Sym= A
 Ene=               0
 Spin= Alpha
 Occup=    1.94806
   1    -0.0040305476550873
   2      0.36067409784723
   3      0.61034176520197
   4    2.1667118728081e-13
   5    7.7322494801066e-15
   6     -0.38774689413361
   7    9.6198094774901e-14
   8    3.4242998884001e-15
   9     -0.15731704984104
  10    -0.031884624928654
  11    4.0036079885898e-14
  12    1.4423625024705e-15
  13    -2.6351323518092e-18
  14    -1.0486124525403e-17
  15    -0.002729001440887
  16     -0.12741779220452
  17     -0.15041867249907
  18    3.7157519906676e-13
  19    1.3335761292564e-14
  20      0.10639495798804
  21    2.2371034305382e-13
  22    8.0402334156409e-15
  23     0.071525767023494
  24    -0.0065946394145349
  25    -1.8626482695027e-14
  26    -6.677243169345e-16
  27    5.9173998836432e-18
  28    2.0259837665522e-18
 Sym= A
 Ene=               0
 Spin= Alpha
 Occup=    1.94786
   1    1.9350445058566e-16
   2    -8.9294658285592e-15
   3    -2.3154339264021e-14
   4     0.029634978290159
   5     -0.31914240844991
   6    2.0121134695015e-14
   7     0.013162506573617
   8     -0.14174851110105
   9    6.0359734957608e-15
  10    1.8631234661982e-15
  11    0.0054781577904669
  12    -0.058994896301268
  13    -1.701549552088e-16
  14    -1.4048097046017e-16
  15    -4.1377359565774e-16
  16    6.5443404725627e-15
  17    4.9769578633396e-15
  18     0.050853266843963
  19       -0.547644540152
  20    -1.2508043564511e-14
  21     0.030618693811414
  22     -0.32973615134417
  23    -6.565326513269e-15
  24    6.6017721367531e-16
  25    -0.0025485799671011
  26     0.027445943805464
  27    1.0755344834231e-17
  28    8.7735955103779e-18
 Sym= A
 Ene=               0
 Spin= Alpha
 Occup=    1.94786
   1    -2.7752940561296e-15
   2    2.4342311978825e-13
   3    4.1194699173162e-13
   4     -0.31914240844991
   5    -0.029634978290159
   6    -2.6183949174662e-13
   7     -0.14174851110105
   8    -0.013162506573617
   9    -1.0623620635668e-13
  10    -2.1493231025117e-14
  11    -0.058994896301268
  12    -0.0054781577904669
  13    6.5247445637849e-18
  14    -3.3635904455088e-17
  15    -3.3461542090566e-15
  16    -8.5628258857723e-14
  17    -1.0101140004658e-13
  18       -0.547644540152
  19    -0.050853266843964
  20     7.20721891313e-14
  21     -0.32973615134417
  22    -0.030618693811414
  23    4.8215957319969e-14
  24    -4.4019652370311e-15
  25     0.027445943805464
  26    0.0025485799671011
  27    -2.1203224409109e-17
  28    -2.0011246896529e-17
 Sym= A
 Ene=               0
 Spin= Alpha
 Occup=    0.05398
   1    2.6682851920746e-16
   2    1.0507657177088e-15
   3    5.4459872625422e-15
   4      0.50180188078706
   5     -0.45247348176192
   6    -1.8202817182383e-16
   7      0.19734867231995
   8     -0.17794879673559
   9    7.8340234372084e-15
  10    4.6438667172001e-15
  11    -0.020404971093955
  12     0.018399110624383
  13    -8.1713049337075e-16
  14    -2.4291604607771e-16
  15    -7.8171396127482e-16
  16    -2.0709773806958e-15
  17    -7.4819967343276e-15
  18     -0.47811981060863
  19      0.43111941921405
  20    7.8258641682184e-16
  21     -0.02621409943399
  22      0.02363718689846
  23    2.0771063805884e-15
  24    -1.6141816208109e-15
  25    -0.031767595779142
  26     0.028644760451763
  27    5.5261344796262e-15
  28    -1.3540106011105e-15
 Sym= A
 Ene=               0
 Spin= Alpha
 Occup=    0.05398
   1    -5.2598771989522e-16
   2    -1.7614708117817e-15
   3    4.0395996893802e-15
   4      0.45247348176192
   5      0.50180188078706
   6    3.1009245503242e-15
   7      0.17794879673559
   8      0.19734867231997
   9    -1.8703954178344e-15
  10    7.5937273666572e-16
  11    -0.018399110624389
  12    -0.020404971093934
  13    -1.0112125671233e-15
  14    -8.9966880585444e-16
  15    1.3664693986682e-15
  16    3.2460761495116e-15
  17    -4.9691803093296e-15
  18     -0.43111941921405
  19     -0.47811981060862
  20    1.1703220755161e-15
  21    -0.023637186898456
  22    -0.026214099434017
  23    5.5017596520175e-16
  24    -2.0306285541288e-15
  25    -0.028644760451763
  26     -0.03176759577913
  27    -1.5780119466699e-16
  28    9.0629351467684e-17
 Sym= A
 Ene=               0
 Spin= Alpha
 Occup=    0.02126
   1    -0.082181479838263
   2     -0.37434478791766
   3     -0.20822261380105
   4    -1.9447126292486e-15
   5    8.9216086118418e-16
   6     -0.87886551209024
   7    4.7170617746905e-16
   8    -2.772429196396e-16
   9     -0.09324738933079
  10     0.059276824478427
  11    4.1301447946388e-15
  12    6.8779322632296e-16
  13    -2.1264090903452e-16
  14    5.2557518900756e-17
  15      0.12872755930254
  16      0.44958190661674
  17      0.26049542745767
  18    -2.9959443030576e-15
  19    -1.0761602921876e-16
  20     -0.81753712426869
  21    2.2057094264219e-15
  22    -6.310424800099e-16
  23     0.064377200340413
  24    -0.067042957721909
  25    -3.128051208205e-17
  26    -1.5335928550141e-16
  27    -8.0492088798377e-17
  28    -1.8539798946023e-18
 Sym= A
 Ene=               0
 Spin= Alpha
 Occup=    0.01152
   1     -0.30528968327599
   2     -0.78834771054078
   3      0.97313717973633
   4    -2.864553340428e-15
   5    -1.3941588729825e-14
   6      0.21742509672474
   7    1.6354073759734e-16
   8    1.3523199925915e-14
   9    -0.049451732774196
  10    -0.083303961986693
  11    3.3748702549892e-15
  12    -4.4864758111308e-15
  13    7.8180969498066e-17
  14    -1.253715019203e-16
  15     -0.35384551057727
  16     -0.91695328793653
  17      0.65483947927577
  18    -4.4020994470898e-15
  19    -7.4329837342035e-15
  20     -0.49784976922256
  21    4.5418312346677e-15
  22    9.7399462189798e-15
  23       0.5832705566642
  24    -0.019555780553586
  25    4.9519249030169e-17
  26    3.4292678100555e-15
  27    5.0532483842348e-17
  28    -4.3331698145793e-17
 Sym= A
 Ene=               0
 Spin= Alpha
 Occup=    0.00809
   1      0.43108242981239
   2       1.1012468153149
   3      -1.1997566853465
   4    -9.6521443686094e-15
   5    -1.5230002420778e-14
   6     -0.43931651541519
   7    8.7245388566369e-15
   8    6.5024285664483e-15
   9      0.43892163980032
  10     0.022512919556842
  11    -9.3185665090919e-15
  12    1.0169363768328e-14
  13    -3.8485790283012e-16
  14    -7.3175943462763e-16
  15      -0.3331495415737
  16      -0.8221003032058
  17      0.90173087183525
  18    -5.9077232724851e-15
  19    -2.9868961396513e-14
  20     -0.17593880747091
  21    1.1870558291864e-14
  22    3.2053886652333e-14
  23      0.19406916159975
  24     0.046010126947396
  25    9.9166689379492e-15
  26    1.0039217836367e-14
  27    -1.2842441749852e-15
  28    -6.5515594733672e-16
 Sym= A
 Ene=               0
 Spin= Alpha
 Occup=    0.00684
   1    -4.9034499314311e-15
   2    -1.0627647055215e-14
   3    -1.5605896319726e-14
   4      0.42246557532766
   5     0.025859444858284
   6    -1.3103824206919e-14
   7    -0.046160112592049
   8    -0.0028254962201389
   9    -9.3141563659622e-15
  10    -6.1543796531898e-16
  11     -0.55722019024736
  12    -0.034107879138927
  13    -9.7462711943679e-15
  14    -9.4994476542666e-15
  15    -8.8543501091392e-15
  16    -1.8581977458645e-14
  17    4.1551318203052e-14
  18      0.74460444035625
  19     0.045577814125308
  20    -7.9275691129643e-15
  21     -0.73729961091468
  22    -0.045130679861167
  23    -9.4686205807802e-15
  24    8.4604898060352e-15
  25     0.010640091757805
  26    0.00065128825204608
  27    -3.3425014744393e-15
  28    -4.1007162338086e-15
 Sym= A
 Ene=               0
 Spin= Alpha
 Occup=    0.00684
   1    -1.8079911197297e-14
   2    -4.158487069751e-14
   3    4.891452807752e-14
   4     0.025859444858314
   5      -0.4224655753277
   6    9.1575976791157e-15
   7    -0.002825496220278
   8     0.046160112592133
   9    3.5646755154236e-15
  10    1.9188575827637e-14
  11    -0.034107879139014
  12      0.55722019024736
  13    -7.9539613527908e-15
  14    -3.8471276960346e-14
  15    9.2030341090776e-15
  16    2.4954367472302e-14
  17    -4.688718251091e-14
  18      0.04557781412528
  19     -0.74460444035626
  20    1.867085465856e-14
  21     -0.04513067986103
  22      0.73729961091466
  23    -1.975095134293e-14
  24    4.8428572630096e-15
  25    0.00065128825198101
  26    -0.010640091757715
  27    5.2043996064363e-14
  28    -3.1781639385122e-14
 Sym= A
 Ene=               0
 Spin= Alpha
 Occup=    0.00597
   1     -0.18978937910488
   2     -0.40291366937825
   3     -0.22282541304207
   4    -1.2726278473749e-16
   5    3.3219708020879e-15
   6     -0.37853800193683
   7    3.5342432908728e-16
   8    -5.0063528684892e-15
   9      0.25739221313831
  10      -0.3517469719187
  11    -3.9203324404003e-15
  12    2.5286223441709e-15
  13    4.526951339919e-16
  14    -5.5475533468445e-16
  15    -0.066118660401511
  16     -0.14010231317156
  17      0.57813357038236
  18    2.0976905319688e-15
  19    -2.3179949779822e-15
  20      0.12296787062905
  21    3.1582954564201e-16
  22    2.5010890498208e-15
  23     -0.82267166880513
  24     -0.57917842427387
  25    4.7646071295177e-15
  26    5.2045022117661e-16
  27    -2.5895003798884e-16
  28    -4.7759766323826e-16
 Sym= A
 Ene=               0
 Spin= Alpha
 Occup=    0.00581
   1    -1.8320242128143e-14
   2    -3.9232772761332e-14
   3    4.4614741840667e-14
   4     -0.14873841333654
   5     -0.23311403091564
   6    2.4642172503236e-15
   7      0.10986207636442
   8      0.17218411096106
   9    1.5448360838019e-14
  10    3.2449971763595e-14
  11     -0.27681591474129
  12     -0.43384672633913
  13    -8.9738589704122e-15
  14    -5.2592969261105e-14
  15    4.2019110947811e-15
  16    1.4587937676115e-14
  17    -4.5153449163908e-14
  18    -0.096871031145953
  19     -0.15182356758286
  20    2.5696686936929e-14
  21      0.29014006623872
  22      0.45472933893653
  23    -2.9327272114946e-14
  24    7.2364722040252e-15
  25      0.31321852805752
  26      0.49089964048341
  27    7.5716143853096e-14
  28    -5.5318061255905e-14
 Sym= A
 Ene=               0
 Spin= Alpha
 Occup=    0.00581
   1    -7.1013273924155e-15
   2    -1.8026500028662e-14
   3    2.7403118633585e-14
   4     -0.23311403091568
   5      0.14873841333651
   6    1.9304561443156e-15
   7      0.17218411096105
   8     -0.10986207636454
   9    4.0658556744489e-15
  10    -1.679283224444e-15
  11      -0.4338467263391
  12       0.2768159147412
  13    1.569894590114e-14
  14    -5.968834691448e-15
  15    3.6909384828015e-15
  16    7.7671811814774e-15
  17    -1.7877281451667e-14
  18     -0.15182356758291
  19     0.096871031145879
  20    -5.5863818341144e-15
  21       0.4547293389366
  22     -0.29014006623852
  23    8.0869521769985e-15
  24    8.4609898837301e-15
  25      0.49089964048339
  26     -0.31321852805761
  27    1.3010348205803e-14
  28    -1.8253568482706e-15
 Sym= A
 Ene=               0
 Spin= Alpha
 Occup=    0.00452
   1    1.5379155522983e-15
   2    2.912319705744e-15
   3    -3.8684279240905e-15
   4    1.0932567478429e-14
   5    4.8264124011475e-14
   6    -4.9946228963666e-16
   7    -5.8769771564813e-15
   8    -8.4844355398569e-15
   9    -2.7435836713087e-15
  10    -4.9315025522937e-15
  11    3.4260548921453e-14
  12    1.2316309831653e-14
  13      0.47429055234482
  14     -0.29697349188176
  15    1.4473871836438e-15
  16    2.9764124329189e-15
  17    1.7589649302181e-15
  18    1.467370937625e-14
  19    5.6545474918982e-14
  20    -3.0002088452364e-15
  21    -3.930715929755e-14
  22    -9.2429042093289e-14
  23    2.7459720732579e-15
  24    1.6407170952676e-16
  25    -4.1510220550875e-14
  26    -2.6982935002721e-14
  27       0.6389619144135
  28     -0.40008123704914
 Sym= A
 Ene=               0
 Spin= Alpha
 Occup=    0.00452
   1    -1.7147432046645e-15
   2    -3.4350466852382e-15
   3    4.7939669196885e-15
   4    9.5915611581091e-15
   5    1.460105835372e-14
   6    9.3376596412751e-16
   7    -5.2401159000146e-14
   8    -1.8061940171856e-15
   9    2.1093369330269e-15
  10    5.1009906098861e-15
  11    -1.5135209165018e-14
  12    5.0256532533926e-15
  13     -0.29697349188177
  14     -0.47429055234479
  15    -9.7396002484134e-16
  16    -1.9169722749988e-15
  17    -2.9573478689438e-15
  18    -1.9091878514652e-14
  19    2.5861576931314e-14
  20    2.8978562977222e-15
  21    5.2462726370743e-14
  22    -3.9808858258834e-14
  23    -2.2212777445486e-15
  24    5.4918154680504e-16
  25    -2.9001117309621e-14
  26    -2.3052826065517e-14
  27     -0.40008123704913
  28     -0.63896191441352
 Sym= A
 Ene=               0
 Spin= Alpha
 Occup=    0.00200
   1    -0.0067772500762677
   2     -0.11704386470729
   3     0.038683787538919
   4    -2.5716339890529e-14
   5    -2.1285378177548e-15
   6     -0.47139600378106
   7    2.5307380414549e-14
   8    -1.9030935825277e-14
   9       0.1195910928548
  10       -1.190392491468
  11    -2.5060177705419e-14
  12    -1.4343125715321e-14
  13    -3.49143360011e-15
  14    -1.7100384687579e-15
  15      0.48983546584645
  16       1.0387316054007
  17     -0.42128579430297
  18    3.5363456206366e-15
  19    -1.4998394688768e-14
  20     -0.67290218824406
  21    3.6619305817617e-15
  22    3.7273842101811e-14
  23       0.3414222647141
  24      0.42302553833051
  25    -2.4717951397382e-14
  26    5.5469487161206e-15
  27    -2.7197597576638e-15
  28    2.3372357138747e-16
 Sym= A
 Ene=               0
 Spin= Alpha
 Occup=    0.00176
   1    -1.2424106814499e-15
   2    -2.7675834451749e-15
   3    3.5406998106015e-15
   4    -3.1947696155774e-14
   5    3.023209365789e-14
   6    -1.7539319319362e-15
   7    4.1882118824407e-14
   8    -6.6330635670126e-14
   9    2.9586858201954e-15
  10    -3.2182331017184e-16
  11    -3.2486179406881e-14
  12    1.9033615199278e-14
  13      0.83333326859476
  14      0.11197936723427
  15    8.9328618556189e-16
  16    2.0112569596844e-15
  17    -3.7566996688421e-15
  18    6.5527093112807e-15
  19    -4.7245782430772e-14
  20    -4.5757111236335e-16
  21    -1.8056935363626e-15
  22    7.4880103350254e-14
  23    -4.2787887939037e-16
  24    2.301465411611e-15
  25    -1.2321542083297e-14
  26    6.7681073543488e-14
  27     -0.66616664879179
  28    -0.089516310719332
 Sym= A
 Ene=               0
 Spin= Alpha
 Occup=    0.00176
   1    1.0259044545102e-16
   2    3.1445152668622e-16
   3    8.6084300227287e-16
   4    -2.4769456622568e-14
   5    2.0318805750597e-15
   6    9.1034056911539e-16
   7    -7.4702647108969e-14
   8    6.0008313938269e-15
   9    3.4091398846961e-16
  10    1.7708343285375e-15
  11    -1.1105949120383e-13
  12    3.3341054323741e-15
  13      0.11197936723427
  14     -0.83333326859478
  15    -3.8793793985834e-16
  16    -7.5422049451645e-16
  17    -1.0801981930179e-15
  18    -2.1002938457806e-14
  19    6.6553234182459e-15
  20    8.6806488064046e-16
  21    1.2583848345318e-13
  22    -1.2854039302266e-14
  23    2.0025764884282e-16
  24    -5.847661715684e-16
  25    -1.0567561872451e-13
  26    6.0059123001334e-15
  27     -0.08951631071934
  28      0.66616664879177
 Sym= A
 Ene=               0
 Spin= Alpha
 Occup=    0.00144
   1    1.8621025546955e-14
   2    3.5503011968058e-14
   3    -3.6592862554239e-14
   4      0.70837178903135
   5     -0.18055698830253
   6    4.0938909633817e-15
   7     -0.52059244415312
   8      0.13269388378348
   9    -3.0919683183995e-14
  10    -5.2369230381393e-14
  11      0.66402796033949
  12     -0.16925418335989
  13    5.4807313575743e-14
  14    -5.6003586775804e-14
  15    1.7028182513515e-14
  16    3.5082271137587e-14
  17     8.56354216592e-15
  18    -0.081413174998664
  19     0.020751416012726
  20    -2.8159530764683e-14
  21     -0.20878064081898
  22     0.053216127895014
  23    3.2803318829083e-14
  24    -7.5686443241611e-15
  25      0.83168616459277
  26     -0.21198860741924
  27    -3.6785095949513e-14
  28    3.9380019428917e-14
 Sym= A
 Ene=               0
 Spin= Alpha
 Occup=    0.00144
   1    -7.473864093765e-15
   2    -1.6937404656382e-14
   3    8.6855952059659e-14
   4       0.1805569883026
   5       0.7083717890313
   6    4.0767071558672e-16
   7     -0.13269388378382
   8     -0.52059244415293
   9    6.9577968410879e-14
  10    1.8488658564812e-14
  11      0.16925418335967
  12      0.66402796033961
  13    -4.8734037515232e-14
  14    -1.9065976808731e-14
  15    1.1555613669566e-14
  16    2.1519691871268e-14
  17    -1.0985700298019e-13
  18    -0.020751416012819
  19    -0.081413174998611
  20    3.3833651481643e-16
  21    -0.053216127894637
  22     -0.20878064081919
  23    2.7440764433211e-14
  24    1.1461685637286e-14
  25      0.21198860741913
  26      0.83168616459282
  27    2.9435503692664e-14
  28    1.4211749240598e-14
 Sym= A
 Ene=               0
 Spin= Alpha
 Occup=    0.00086
   1     -0.68609065387726
   2      -1.3969259337228
   3      0.13089092668294
   4    2.297731347887e-14
   5    -2.735038608842e-14
   6      -1.0168333539591
   7    -3.4761730924621e-14
   8    8.6190507128169e-14
   9       0.4765164021298
  10      0.12720908141497
  11    1.5148960495852e-14
  12    2.7495864606834e-14
  13    -4.0846077331743e-17
  14    1.6153355116518e-16
  15     -0.22985124886432
  16     -0.41820851748882
  17      0.93393494354954
  18    -8.4283835617949e-15
  19    2.8514422328761e-14
  20      0.12454974178664
  21    1.1299802186117e-14
  22    -8.4105445052816e-14
  23      -1.3258692862353
  24      0.93272637470452
  25    3.8610282404143e-15
  26    -2.7413312903507e-15
  27    3.5561526361691e-15
  28    7.8472223579404e-16
 Sym= A
 Ene=               0
 Spin= Alpha
 Occup=    0.00051
   1    9.2166409346253e-15
   2    1.8632811304161e-14
   3    -7.9418904138638e-14
   4        0.324477590564
   5    -0.037880788697281
   6    -2.6531869636896e-16
   7      -1.2828135895578
   8      0.14976069823367
   9    -6.7952037635302e-14
  10    -3.1257852696426e-14
  11     -0.75080820561035
  12     0.087652299622404
  13    1.7191546736721e-14
  14    9.2664255689785e-14
  15    -7.7204736690001e-15
  16    -1.4912175145848e-14
  17    1.025070302541e-13
  18      -0.2746674853637
  19     0.032065761327386
  20    -1.266715789412e-14
  21       1.2401271658949
  22     -0.14477731743322
  23    -1.0769536100215e-14
  24    -8.3264277646155e-15
  25     -0.45995532586035
  26      0.05369699176685
  27    1.4872670440281e-14
  28    -3.5805812505103e-14
 Sym= A
 Ene=               0
 Spin= Alpha
 Occup=    0.00051
   1    2.452068984182e-14
   2    4.9053825686504e-14
   3    -1.7071599573955e-13
   4    -0.037880788697183
   5     -0.32447759056412
   6    8.6595365559929e-15
   7      0.14976069823356
   8       1.2828135895579
   9    -1.5265351219099e-13
  10    -7.3281606886166e-14
  11      0.08765229962259
  12      0.75080820561023
  13    2.0619336039213e-14
  14    2.220401352305e-15
  15    -1.0615799825086e-14
  16    -1.9205698349711e-14
  17    2.0707934876968e-13
  18     0.032065761327265
  19      0.27466748536376
  20    -2.6815088807525e-14
  21     -0.14477731743313
  22      -1.2401271658949
  23    -1.5122767711303e-14
  24    -2.524620664931e-14
  25     0.053696991767124
  26      0.45995532586016
  27    -2.6525374541752e-14
  28    2.5812791695911e-15
 Sym= A
 Ene=               0
 Spin= Alpha
 Occup=    0.00018
   1     -0.25888206377901
   2     -0.52330317456505
   3      -2.8436270386505
   4    -1.1501997466977e-14
   5    3.4942231755056e-14
   6     -0.70419793040169
   7    2.8768652617473e-14
   8    -9.0434000589202e-14
   9      -2.2771760135318
  10     -0.82780052992886
  11    1.1625922159991e-14
  12    -2.4513242416286e-14
  13    4.0760792980764e-17
  14    -3.7989092447327e-16
  15     -0.58806759260519
  16      -1.1308424158826
  17       4.7710696587272
  18    -9.1004243587124e-16
  19    -2.3114594512987e-14
  20     -0.20878158988109
  21    -1.5760330104443e-14
  22    7.4972816896945e-14
  23      -1.6098432932013
  24      0.38733025699957
  25    1.0165285303014e-14
  26    3.8996987792291e-16
  27    -1.7034971432176e-15
  28    -1.4021238108327e-16
